[Molden Format]
[Title]
 Molden file created by orca_2mkl for BaseName=orca

[Atoms] AU
H    1   1         51.7917241524         2.4056213685        52.6402130762
[GTO]
  1 0
s   3 1.0
       33.8700000000         0.2551080577
        5.0950000000         0.4600978881
        1.1590000000         0.6784140671
s   1 1.0
        0.3258000000         0.3073430538
s   1 1.0
        0.1027000000         0.1292968442
p   1 1.0
        1.4070000000         2.1842769845
p   1 1.0
        0.3880000000         0.4364954740
d   1 1.0
        1.0570000000         3.1412413909

[5D]
[7F]
[9G]
[MO]
 Sym=     1a
 Ene= -3.18242166478886E-01
 Spin= Alpha
 Occup= 1.000000
  1       0.249530935828
  2       0.466419024947
  3       0.415457002414
  4      -0.000000000000
  5       0.000000000000
  6       0.000000000000
  7      -0.000000000000
  8       0.000000000000
  9      -0.000000000000
 10       0.000000000000
 11       0.000000000000
 12       0.000000000000
 13       0.000000000000
 14       0.000000000000
 Sym=     1a
 Ene= 2.47935801715801E-01
 Spin= Alpha
 Occup= 0.000000
  1      -0.141578123472
  2      -1.273613963512
  3       1.528451549398
  4      -0.000000000000
  5      -0.000000000000
  6      -0.000000000000
  7       0.000000000000
  8       0.000000000000
  9       0.000000000000
 10      -0.000000000000
 11       0.000000000000
 12      -0.000000000000
 13       0.000000000000
 14       0.000000000000
 Sym=     1a
 Ene= 5.95451557719233E-01
 Spin= Alpha
 Occup= 0.000000
  1      -0.000000000000
  2      -0.000000000000
  3       0.000000000000
  4       0.027161982869
  5      -0.010149738206
  6       0.075653539080
  7      -0.351267718617
  8       0.131259761171
  9      -0.978376512725
 10      -0.000000000000
 11       0.000000000000
 12       0.000000000000
 13       0.000000000000
 14      -0.000000000000
 Sym=     1a
 Ene= 5.95451557719234E-01
 Spin= Alpha
 Occup= 0.000000
  1      -0.000000000000
  2      -0.000000000000
  3       0.000000000000
  4       0.071259944429
  5       0.032153056778
  6      -0.021270865852
  7      -0.921557097999
  8      -0.415813932122
  9       0.275081850870
 10      -0.000000000000
 11      -0.000000000000
 12      -0.000000000000
 13       0.000000000000
 14       0.000000000000
 Sym=     1a
 Ene= 5.95451557719235E-01
 Spin= Alpha
 Occup= 0.000000
  1      -0.000000000000
  2      -0.000000000000
  3       0.000000000000
  4       0.027358645451
  5      -0.073670972768
  6      -0.019706363564
  7      -0.353811023969
  8       0.952737311459
  9       0.254849191419
 10       0.000000000000
 11      -0.000000000000
 12       0.000000000000
 13       0.000000000000
 14      -0.000000000000
 Sym=     1a
 Ene= 2.14743028670821E+00
 Spin= Alpha
 Occup= 0.000000
  1       1.531561920515
  2      -1.921519412936
  3       0.844465729148
  4       0.000000000000
  5      -0.000000000000
  6       0.000000000000
  7      -0.000000000000
  8       0.000000000000
  9      -0.000000000000
 10      -0.000000000000
 11      -0.000000000000
 12       0.000000000000
 13      -0.000000000000
 14       0.000000000000
 Sym=     1a
 Ene= 3.15434769184693E+00
 Spin= Alpha
 Occup= 0.000000
  1       0.000000000000
  2      -0.000000000000
  3       0.000000000000
  4      -0.000000000000
  5       0.000000000000
  6      -0.000000000000
  7       0.000000000000
  8      -0.000000000000
  9       0.000000000000
 10       0.208734266684
 11       0.570650484920
 12       0.014925641037
 13       0.624213296581
 14      -0.490839093375
 Sym=     1a
 Ene= 3.15434769184693E+00
 Spin= Alpha
 Occup= 0.000000
  1       0.000000000000
  2      -0.000000000000
  3       0.000000000000
  4       0.000000000000
  5       0.000000000000
  6       0.000000000000
  7      -0.000000000000
  8      -0.000000000000
  9      -0.000000000000
 10       0.786246903041
 11      -0.297748419576
 12      -0.093179736997
 13      -0.322525723066
 14      -0.424801578001
 Sym=     1a
 Ene= 3.15434769184693E+00
 Spin= Alpha
 Occup= 0.000000
  1       0.000000000000
  2      -0.000000000000
  3       0.000000000000
  4       0.000000000000
  5      -0.000000000000
  6      -0.000000000000
  7      -0.000000000000
  8       0.000000000000
  9       0.000000000000
 10       0.465319900965
 11       0.575028794367
 12      -0.151148365754
 13      -0.182408364921
 14       0.629841754214
 Sym=     1a
 Ene= 3.15434769184693E+00
 Spin= Alpha
 Occup= 0.000000
  1      -0.000000000000
  2       0.000000000000
  3      -0.000000000000
  4       0.000000000000
  5       0.000000000000
  6      -0.000000000000
  7      -0.000000000000
  8      -0.000000000000
  9       0.000000000000
 10      -0.007547125218
 11       0.261947603909
 12       0.888923864942
 13      -0.354962856816
 14      -0.123053753803
 Sym=     1a
 Ene= 3.15434769184693E+00
 Spin= Alpha
 Occup= 0.000000
  1      -0.000000000000
  2      -0.000000000000
  3       0.000000000000
  4       0.000000000000
  5       0.000000000000
  6      -0.000000000000
  7      -0.000000000000
  8      -0.000000000000
  9       0.000000000000
 10      -0.348806886454
 11       0.431774525830
 12      -0.421975468149
 13      -0.589120935819
 14      -0.408384306831
 Sym=     1a
 Ene= 3.53030107123187E+00
 Spin= Alpha
 Occup= 0.000000
  1       0.000000000000
  2      -0.000000000000
  3       0.000000000000
  4      -0.776143335283
  5       0.773074196075
  6       0.633600229715
  7       0.438083669495
  8      -0.436351335137
  9      -0.357627130207
 10       0.000000000000
 11       0.000000000000
 12      -0.000000000000
 13      -0.000000000000
 14       0.000000000000
 Sym=     1a
 Ene= 3.53030107123187E+00
 Spin= Alpha
 Occup= 0.000000
  1       0.000000000000
  2      -0.000000000000
  3       0.000000000000
  4      -0.868454877641
  5      -0.918703847599
  6       0.057103472256
  7       0.490187678348
  8       0.518550033788
  9      -0.032231287096
 10       0.000000000000
 11      -0.000000000000
 12      -0.000000000000
 13      -0.000000000000
 14      -0.000000000000
 Sym=     1a
 Ene= 3.53030107123187E+00
 Spin= Alpha
 Occup= 0.000000
  1       0.000000000000
  2      -0.000000000000
  3       0.000000000000
  4      -0.494852593439
  5       0.399788654673
  6      -1.093975037648
  7       0.279312892526
  8      -0.225655330529
  9       0.617479500296
 10       0.000000000000
 11      -0.000000000000
 12       0.000000000000
 13      -0.000000000000
 14       0.000000000000
 Sym=     1a
 Ene= -2.84747655811300E-02
 Spin=Beta
 Occup= 0.000000
  1      -0.150216170451
  2      -0.125368524251
  3      -0.824348571468
  4      -0.000000000002
  5       0.000000000001
  6       0.000000000002
  7       0.000000000002
  8       0.000000000005
  9       0.000000000003
 10      -0.000000000000
 11       0.000000000001
 12       0.000000000002
 13       0.000000000003
 14       0.000000000001
 Sym=     1a
 Ene= 4.07580786611214E-01
 Spin=Beta
 Occup= 0.000000
  1      -0.105554314504
  2      -1.480418085540
  3       1.391828007242
  4      -0.000000000003
  5      -0.000000000001
  6       0.000000000002
  7       0.000000000001
  8       0.000000000019
  9       0.000000000014
 10      -0.000000000001
 11       0.000000000001
 12       0.000000000004
 13       0.000000000004
 14       0.000000000001
 Sym=     1a
 Ene= 7.36779479318140E-01
 Spin=Beta
 Occup= 0.000000
  1       0.000000000004
  2       0.000000000018
  3      -0.000000000014
  4       0.000687446394
  5      -0.101152082174
  6       0.031096014541
  7      -0.006896063147
  8       1.014698967120
  9      -0.311937165898
 10       0.000000000002
 11      -0.000000000000
 12       0.000000000003
 13      -0.000000000001
 14       0.000000000004
 Sym=     1a
 Ene= 7.36779479320117E-01
 Spin=Beta
 Occup= 0.000000
  1      -0.000000000001
  2      -0.000000000030
  3       0.000000000023
  4      -0.044451799400
  5       0.027944180198
  6       0.091882200427
  7       0.445914646202
  8      -0.280319793442
  9      -0.921708894795
 10       0.000000000004
 11      -0.000000000003
 12       0.000000000003
 13       0.000000000001
 14      -0.000000000004
 Sym=     1a
 Ene= 7.36779479326678E-01
 Spin=Beta
 Occup= 0.000000
  1       0.000000000004
  2       0.000000000009
  3      -0.000000000007
  4      -0.096035115350
  5      -0.013658605209
  6      -0.042306944538
  7       0.963368526399
  8       0.137015198289
  9       0.424398707376
 10      -0.000000000000
 11      -0.000000000003
 12      -0.000000000002
 13      -0.000000000007
 14      -0.000000000006
 Sym=     1a
 Ene= 2.49840579314301E+00
 Spin=Beta
 Occup= 0.000000
  1      -1.547347846535
  2       1.823326935661
  3      -0.777917256779
  4      -0.000000000020
  5      -0.000000000016
  6      -0.000000000005
  7       0.000000000013
  8       0.000000000010
  9       0.000000000002
 10       0.000000000006
 11      -0.000000000006
 12       0.000000000012
 13       0.000000000008
 14       0.000000000005
 Sym=     1a
 Ene= 3.36547481794917E+00
 Spin=Beta
 Occup= 0.000000
  1       0.000000000025
  2      -0.000000000020
  3       0.000000000008
  4      -0.000000000022
  5      -0.000000000017
  6      -0.000000000018
  7       0.000000000015
  8       0.000000000008
  9       0.000000000015
 10       0.202685131969
 11      -0.017295194523
 12       0.920776639841
 13       0.280479124138
 14       0.179224590866
 Sym=     1a
 Ene= 3.36547481795968E+00
 Spin=Beta
 Occup= 0.000000
  1       0.000000000011
  2      -0.000000000016
  3       0.000000000007
  4       0.000000000012
  5       0.000000000038
  6      -0.000000000017
  7      -0.000000000009
  8      -0.000000000022
  9       0.000000000012
 10       0.509127149693
 11      -0.797739403025
 12      -0.166966872099
 13      -0.043536807437
 14       0.273181259105
 Sym=     1a
 Ene= 3.36547481799792E+00
 Spin=Beta
 Occup= 0.000000
  1       0.000000000006
  2      -0.000000000002
  3       0.000000000001
  4      -0.000000000071
  5      -0.000000000008
  6      -0.000000000001
  7       0.000000000042
  8       0.000000000008
  9       0.000000000002
 10       0.090439651175
 11      -0.031234186868
 12      -0.250870893148
 13       0.925962656775
 14      -0.265522218082
 Sym=     1a
 Ene= 3.36547481800336E+00
 Spin=Beta
 Occup= 0.000000
  1      -0.000000000002
  2       0.000000000001
  3      -0.000000000000
  4       0.000000000105
  5      -0.000000000094
  6      -0.000000000030
  7      -0.000000000067
  8       0.000000000055
  9       0.000000000018
 10       0.194013867368
 11      -0.215894181506
 12       0.200335558297
 13      -0.231910464577
 14      -0.906549238686
 Sym=     1a
 Ene= 3.36547481802947E+00
 Spin=Beta
 Occup= 0.000000
  1       0.000000000001
  2       0.000000000001
  3      -0.000000000001
  4       0.000000000015
  5      -0.000000000050
  6       0.000000000023
  7      -0.000000000009
  8       0.000000000028
  9      -0.000000000014
 10      -0.808633150130
 11      -0.561895763527
 12       0.145677390825
 13       0.090811353908
 14      -0.030281599123
 Sym=     1a
 Ene= 3.80757937255381E+00
 Spin=Beta
 Occup= 0.000000
  1      -0.000000000011
  2       0.000000000014
  3      -0.000000000006
  4      -0.221049785284
  5       1.139825115083
  6      -0.498790747841
  7       0.121330508993
  8      -0.625630833341
  9       0.273777851625
 10      -0.000000000038
 11      -0.000000000016
 12       0.000000000031
 13      -0.000000000014
 14      -0.000000000073
 Sym=     1a
 Ene= 3.80757937261751E+00
 Spin=Beta
 Occup= 0.000000
  1       0.000000000026
  2      -0.000000000032
  3       0.000000000014
  4      -0.687124733164
  5      -0.534175956408
  6      -0.916172559809
  7       0.377151208309
  8       0.293200197410
  9       0.502871707676
 10      -0.000000000007
 11      -0.000000000005
 12      -0.000000000017
 13      -0.000000000037
 14       0.000000000010
 Sym=     1a
 Ene= 3.80757937262008E+00
 Spin=Beta
 Occup= 0.000000
  1       0.000000000015
  2      -0.000000000011
  3       0.000000000004
  4      -1.037233389444
  5       0.110956141338
  6       0.713226570733
  7       0.569319960768
  8      -0.060901959651
  9      -0.391478067909
 10       0.000000000016
 11      -0.000000000029
 12       0.000000000023
 13      -0.000000000064
 14      -0.000000000065
