[Molden Format]
[Title]
 Molden file created by orca_2mkl for BaseName=orca

[Atoms] AU
O    1   8         51.7917241524         2.4056213685        52.6402130762
[GTO]
  1 0
s   8 1.0
    15330.0000000000         0.5107820689
     2299.0000000000         0.9520320559
      522.4000000000         1.6143309227
      147.3000000000         2.4433650471
       47.5500000000         3.0486061870
       16.7600000000         2.6183461361
        6.2070000000         1.0052339944
        0.6882000000        -0.0044964733
s   8 1.0
    15330.0000000000        -0.1936657939
     2299.0000000000        -0.3632249960
      522.4000000000        -0.6192189910
      147.3000000000        -0.9677187516
       47.5500000000        -1.2940243602
       16.7600000000        -1.3817163263
        6.2070000000        -0.8447542687
        0.6882000000         0.5573175589
s   1 1.0
        1.7520000000         1.0853271534
s   1 1.0
        0.2384000000         0.2431586819
p   3 1.0
       34.4600000000         4.8988750613
        7.7490000000         4.7502609215
        2.2800000000         3.2044979545
p   1 1.0
        0.7156000000         0.9381623559
p   1 1.0
        0.2140000000         0.2074709543
d   1 1.0
        2.3140000000        12.3767310624
d   1 1.0
        0.6450000000         1.3234257612
f   1 1.0
        1.4280000000        12.7097950062

[5D]
[7F]
[9G]
[MO]
 Sym=     1a
 Ene= -1.92682740781417E+01
 Spin= Alpha
 Occup= 1.000000
  1      -0.969719214492
  2       0.004388179411
  3      -0.052755897289
  4      -0.002972713617
  5      -0.000000000003
  6      -0.000000000179
  7       0.000000000184
  8       0.000000000000
  9       0.000000000065
 10      -0.000000000066
 11       0.000000000000
 12      -0.000000000023
 13       0.000000000024
 14      -0.000280054615
 15      -0.000134600814
 16       0.000027837925
 17       0.000462485636
 18      -0.000199849078
 19       0.000080313003
 20       0.000038600332
 21      -0.000007983260
 22      -0.000132629892
 23       0.000057311946
 24      -0.000000000000
 25       0.000000000000
 26       0.000000000000
 27       0.000000000000
 28       0.000000000000
 29      -0.000000000000
 30       0.000000000000
 Sym=     1a
 Ene= -1.01301822774117E+00
 Spin= Alpha
 Occup= 1.000000
  1       0.009896926343
  2      -0.583246387915
  3      -0.176487498581
  4      -0.366368622603
  5      -0.000000000225
  6      -0.000000005954
  7       0.000000006142
  8      -0.000000000313
  9      -0.000000008065
 10       0.000000008324
 11      -0.000000000086
 12      -0.000000002308
 13       0.000000002383
 14      -0.003488394913
 15      -0.001676603900
 16       0.000346752374
 17       0.005760777876
 18      -0.002489346451
 19      -0.006966025240
 20      -0.003348030211
 21       0.000692433936
 22       0.011503775440
 23      -0.004971011187
 24       0.000000000035
 25       0.000000000030
 26      -0.000000000018
 27      -0.000000000047
 28       0.000000000010
 29      -0.000000000034
 30      -0.000000000051
 Sym=     1a
 Ene= -4.53995943296484E-01
 Spin= Alpha
 Occup= 1.000000
  1      -0.000000000894
  2       0.000000006964
  3       0.000000002176
  4       0.000000009527
  5      -0.067772382604
  6      -0.390640595047
  7       0.093465389060
  8      -0.080179369417
  9      -0.462154553470
 10       0.110575950944
 11      -0.054385529497
 12      -0.313478665498
 13       0.075003483354
 14       0.000000000291
 15       0.000000000172
 16       0.000000000940
 17       0.000000000630
 18      -0.000000000116
 19       0.000000000806
 20       0.000000000478
 21       0.000000002472
 22       0.000000001579
 23      -0.000000000288
 24       0.000863108403
 25       0.000253037622
 26      -0.001577881905
 27      -0.001616336469
 28      -0.000818478254
 29      -0.003425860456
 30      -0.005232784307
 Sym=     1a
 Ene= -4.53995939498930E-01
 Spin= Alpha
 Occup= 1.000000
  1      -0.000000000584
  2       0.000000004568
  3       0.000000001427
  4       0.000000006239
  5       0.071553480358
  6       0.081528696051
  7       0.392634842022
  8       0.084652661260
  9       0.096454027094
 10       0.464513885832
 11       0.057419765574
 12       0.065424605464
 13       0.315078998869
 14      -0.000000000943
 15      -0.000000000102
 16       0.000000000585
 17      -0.000000000227
 18       0.000000000174
 19      -0.000000002456
 20      -0.000000000239
 21       0.000000001534
 22      -0.000000000639
 23       0.000000000481
 24       0.003625796397
 25       0.002406051661
 26      -0.000134463639
 27      -0.004338147260
 28       0.002235699719
 29       0.001546335931
 30       0.000732869908
 Sym=     1a
 Ene= -3.78492282392465E-01
 Spin= Alpha
 Occup= 1.000000
  1       0.000000000015
  2      -0.000000000130
  3      -0.000000000033
  4      -0.000000000204
  5      -0.386924768102
  6       0.080023095294
  7       0.053896478928
  8      -0.447698159777
  9       0.092592137664
 10       0.062361879358
 11      -0.351170186071
 12       0.072628396077
 13       0.048916058474
 14      -0.000000000196
 15       0.000000000784
 16      -0.000000000054
 17      -0.000000000175
 18      -0.000000000755
 19      -0.000000000550
 20       0.000000002250
 21      -0.000000000155
 22      -0.000000000520
 23      -0.000000002151
 24       0.001633711150
 25      -0.004487423062
 26       0.000928080850
 27      -0.001960402029
 28       0.000847128820
 29      -0.005232118664
 30       0.003671085480
 Sym=     1a
 Ene= 5.20196110980588E-01
 Spin= Alpha
 Occup= 0.000000
  1      -0.000000014025
  2      -0.000000040445
  3      -0.000000008433
  4       0.000000051407
  5      -0.044588529778
  6      -0.262073593781
  7       0.069012472402
  8      -0.113092181605
  9      -0.664710711886
 10       0.175039877384
 11       0.193826175980
 12       1.139232904088
 13      -0.299996952793
 14       0.000000000096
 15       0.000000000086
 16       0.000000000942
 17       0.000000000877
 18      -0.000000000221
 19       0.000000000144
 20       0.000000000063
 21      -0.000000000149
 22      -0.000000000376
 23       0.000000000125
 24       0.000359302568
 25       0.000116926903
 26      -0.000600815595
 27      -0.000651705301
 28      -0.000291760398
 29      -0.001288613781
 30      -0.001982333603
 Sym=     1a
 Ene= 5.20196112414494E-01
 Spin= Alpha
 Occup= 0.000000
  1      -0.000000008745
  2      -0.000000025218
  3      -0.000000005258
  4       0.000000032052
  5       0.049269833922
  6       0.060935707155
  7       0.263235161445
  8       0.124965607314
  9       0.154554364153
 10       0.667656857403
 11      -0.214175768258
 12      -0.264887287270
 13      -1.144282234355
 14      -0.000000001022
 15      -0.000000000151
 16       0.000000000557
 17      -0.000000000064
 18       0.000000000098
 19       0.000000000235
 20       0.000000000061
 21      -0.000000000088
 22      -0.000000000152
 23       0.000000000057
 24       0.001370492657
 25       0.000912208369
 26      -0.000037485209
 27      -0.001634713445
 28       0.000856714197
 29       0.000617230107
 30       0.000323674381
 Sym=     1a
 Ene= 5.54286717015506E-01
 Spin= Alpha
 Occup= 0.000000
  1      -0.000000000441
  2      -0.000000001286
  3      -0.000000000271
  4       0.000000001617
  5       0.272064099551
  6      -0.056267811053
  7      -0.037897038561
  8       0.696651643551
  9      -0.144080244847
 10      -0.097039760824
 11      -1.151570793842
 12       0.238165808789
 13       0.160407513947
 14       0.000000000201
 15      -0.000000000809
 16       0.000000000057
 17       0.000000000188
 18       0.000000000773
 19      -0.000000000003
 20      -0.000000000013
 21      -0.000000000002
 22      -0.000000000007
 23       0.000000000017
 24      -0.000682890805
 25       0.001875741111
 26      -0.000387937367
 27       0.000819447563
 28      -0.000354099644
 29       0.002187023922
 30      -0.001534512099
 Sym=     1a
 Ene= 6.75588762755976E-01
 Spin= Alpha
 Occup= 0.000000
  1      -0.467096229528
  2      -1.368313665542
  3      -0.276785360129
  4       1.650535114937
  5       0.000000000156
  6       0.000000006708
  7      -0.000000006886
  8       0.000000000470
  9       0.000000019635
 10      -0.000000020167
 11      -0.000000000734
 12      -0.000000030099
 13       0.000000030922
 14      -0.003994874326
 15      -0.001920030380
 16       0.000397097368
 17       0.006597184011
 18      -0.002850774008
 19       0.004762278311
 20       0.002288863591
 21      -0.000473378542
 22      -0.007864481419
 23       0.003398398518
 24      -0.000000000050
 25      -0.000000000029
 26       0.000000000027
 27       0.000000000070
 28      -0.000000000009
 29       0.000000000033
 30       0.000000000078
 Sym=     1a
 Ene= 1.36740445594208E+00
 Spin= Alpha
 Occup= 0.000000
  1       0.000000000060
  2       0.000000000292
  3       0.000000000092
  4      -0.000000000184
  5       0.000000000166
  6       0.000000002356
  7      -0.000000002343
  8      -0.000000000005
  9      -0.000000000129
 10       0.000000000125
 11       0.000000000076
 12       0.000000001116
 13      -0.000000001107
 14      -0.000024252740
 15       0.000165578893
 16       0.000819462958
 17       0.000031903821
 18       0.000110444510
 19      -0.028714969131
 20       0.196043266994
 21       0.970232979845
 22       0.037773653000
 23       0.130764576475
 24      -0.000000000809
 25      -0.000000000342
 26      -0.000000001384
 27      -0.000000001050
 28       0.000000000098
 29       0.000000000195
 30      -0.000000000011
 Sym=     1a
 Ene= 1.36740445605200E+00
 Spin= Alpha
 Occup= 0.000000
  1       0.000000000636
  2       0.000000002097
  3       0.000000000418
  4      -0.000000001968
  5       0.000000000812
  6       0.000000002259
  7       0.000000002325
  8      -0.000000000023
  9      -0.000000000111
 10      -0.000000000119
 11       0.000000000367
 12       0.000000001059
 13       0.000000001094
 14       0.000717366881
 15       0.000116375382
 16       0.000004793648
 17       0.000395872155
 18      -0.000166864234
 19       0.849352845280
 20       0.137786652914
 21       0.005675654644
 22       0.468707006305
 23      -0.197564880992
 24      -0.000000001258
 25      -0.000000000081
 26       0.000000001176
 27      -0.000000000559
 28       0.000000000398
 29      -0.000000000256
 30      -0.000000000576
 Sym=     1a
 Ene= 1.40866912787044E+00
 Spin= Alpha
 Occup= 0.000000
  1      -0.000000000761
  2      -0.000000003669
  3      -0.000000001164
  4       0.000000002907
  5      -0.000000002789
  6       0.000000000576
  7       0.000000000313
  8       0.000000000057
  9      -0.000000000018
 10      -0.000000000004
 11      -0.000000001243
 12       0.000000000262
 13       0.000000000145
 14      -0.000531657325
 15       0.002170100072
 16      -0.000411097745
 17       0.000174359363
 18      -0.000370325846
 19       0.230589418663
 20      -0.941212115404
 21       0.178300659487
 22      -0.075622871796
 23       0.160617182943
 24      -0.000000000468
 25       0.000000001287
 26       0.000000000003
 27      -0.000000000159
 28      -0.000000001229
 29       0.000000000171
 30       0.000000000132
 Sym=     1a
 Ene= 1.40866912877439E+00
 Spin= Alpha
 Occup= 0.000000
  1       0.000000000263
  2       0.000000000056
  3      -0.000000000277
  4      -0.000000000480
  5      -0.000000002051
  6       0.000000000464
  7       0.000000000301
  8       0.000000000035
  9      -0.000000000035
 10      -0.000000000003
 11      -0.000000000911
 12       0.000000000221
 13       0.000000000130
 14       0.000063389505
 15      -0.000195104934
 16       0.000356702560
 17      -0.000934469947
 18      -0.002070261271
 19      -0.027493101440
 20       0.084620576180
 21      -0.154708365712
 22       0.405296649545
 23       0.897910343105
 24       0.000000000189
 25      -0.000000000483
 26       0.000000000326
 27      -0.000000000308
 28      -0.000000000944
 29       0.000000001178
 30      -0.000000000574
 Sym=     1a
 Ene= 1.42335040441896E+00
 Spin= Alpha
 Occup= 0.000000
  1       0.009833968806
  2       0.006086710330
  3      -0.009105674134
  4      -0.020031389532
  5      -0.000000000150
  6      -0.000000001229
  7       0.000000001304
  8       0.000000000021
  9       0.000000000152
 10      -0.000000000164
 11      -0.000000000069
 12      -0.000000000584
 13       0.000000000621
 14      -0.001653454984
 15      -0.000794688530
 16       0.000164356063
 17       0.002730534694
 18      -0.001179918003
 19       0.473352141572
 20       0.227503947552
 21      -0.047051964804
 22      -0.781699291974
 23       0.337787816698
 24      -0.000000000696
 25      -0.000000000423
 26       0.000000000365
 27       0.000000000957
 28      -0.000000000136
 29       0.000000000495
 30       0.000000001052
 Sym=     1a
 Ene= 3.45489033877782E+00
 Spin= Alpha
 Occup= 0.000000
  1      -0.000000006107
  2      -0.000000008324
  3       0.000000005443
  4       0.000000004729
  5       0.127903444252
  6       1.038445762059
  7      -0.623613722679
  8      -0.153877165909
  9      -1.249325952055
 10       0.750252767810
 11       0.064778325595
 12       0.525934062126
 13      -0.315837100196
 14       0.000000000098
 15      -0.000000000149
 16      -0.000000001549
 17      -0.000000000902
 18       0.000000000131
 19       0.000000000077
 20      -0.000000000046
 21      -0.000000000633
 22      -0.000000000422
 23       0.000000000082
 24       0.002769334685
 25       0.001399792023
 26      -0.002220102702
 27      -0.004112857014
 28      -0.000142443674
 29      -0.004015558463
 30      -0.006846607536
 Sym=     1a
 Ene= 3.45489034278159E+00
 Spin= Alpha
 Occup= 0.000000
  1      -0.000000001695
  2      -0.000000002311
  3       0.000000001511
  4       0.000000001313
  5      -0.265495092387
  6      -0.587799308507
  7      -1.033260517384
  8       0.319409949871
  9       0.707165416690
 10       1.243087723218
 11      -0.134463365640
 12      -0.297698434535
 13      -0.523307928320
 14       0.000000001436
 15       0.000000000226
 16      -0.000000000393
 17       0.000000000547
 18      -0.000000000268
 19       0.000000000592
 20       0.000000000091
 21      -0.000000000159
 22       0.000000000203
 23      -0.000000000103
 24       0.004588488072
 25       0.003184832064
 26       0.000506511952
 27      -0.005234491042
 28       0.003420537071
 29       0.003617637430
 30       0.003294373015
 Sym=     1a
 Ene= 3.51881784705620E+00
 Spin= Alpha
 Occup= 0.000000
  1      -0.000000000152
  2      -0.000000000205
  3       0.000000000135
  4       0.000000000112
  5      -1.183315010917
  6       0.244731008937
  7       0.164829302435
  8       1.418171089236
  9      -0.293303507217
 10      -0.197543467589
 11      -0.592783274464
 12       0.122598334179
 13       0.082571464583
 14      -0.000000000290
 15       0.000000001133
 16      -0.000000000079
 17      -0.000000000252
 18      -0.000000001092
 19      -0.000000000128
 20       0.000000000515
 21      -0.000000000037
 22      -0.000000000123
 23      -0.000000000490
 24      -0.002447613126
 25       0.006723014276
 26      -0.001390442382
 27       0.002937058100
 28      -0.001269160547
 29       0.007838709895
 30      -0.005499989850
 Sym=     1a
 Ene= 4.97384205884655E+00
 Spin= Alpha
 Occup= 0.000000
  1      -0.000000000000
  2      -0.000000000000
  3       0.000000000000
  4       0.000000000000
  5      -0.000000001010
  6       0.000000000261
  7       0.000000000998
  8       0.000000000979
  9      -0.000000000725
 10      -0.000000000750
 11      -0.000000000394
 12       0.000000000305
 13       0.000000000270
 14      -0.000000004505
 15      -0.000000000893
 16      -0.000000000747
 17      -0.000000002523
 18       0.000000000972
 19       0.000000003910
 20       0.000000000774
 21       0.000000000648
 22       0.000000002190
 23      -0.000000000843
 24       0.640903541332
 25      -0.001540868002
 26      -0.536118909881
 27       0.436719054515
 28      -0.287456254920
 29       0.014126365958
 30       0.168114858408
 Sym=     1a
 Ene= 4.97384205961602E+00
 Spin= Alpha
 Occup= 0.000000
  1      -0.000000000004
  2      -0.000000000001
  3       0.000000000006
  4       0.000000000001
  5       0.000000000330
  6       0.000000000227
  7       0.000000000195
  8      -0.000000000350
  9       0.000000000271
 10       0.000000000108
 11       0.000000000117
 12      -0.000000000119
 13      -0.000000000067
 14       0.000000000780
 15      -0.000000000961
 16      -0.000000005164
 17       0.000000000146
 18      -0.000000000859
 19      -0.000000000676
 20       0.000000000833
 21       0.000000004482
 22      -0.000000000126
 23       0.000000000744
 24       0.424986557099
 25       0.229977193096
 26       0.761414487363
 27       0.367653497313
 28      -0.009963045937
 29      -0.172366769995
 30      -0.147533845628
 Sym=     1a
 Ene= 5.01696681740077E+00
 Spin= Alpha
 Occup= 0.000000
  1      -0.000000000004
  2      -0.000000000003
  3       0.000000000005
  4       0.000000000002
  5       0.000000001102
  6      -0.000000001006
  7       0.000000000413
  8      -0.000000000638
  9       0.000000001051
 10      -0.000000001256
 11       0.000000000310
 12      -0.000000000229
 13       0.000000000350
 14      -0.000000000730
 15       0.000000003047
 16      -0.000000000299
 17      -0.000000000834
 18      -0.000000003002
 19       0.000000000638
 20      -0.000000002664
 21       0.000000000257
 22       0.000000000729
 23       0.000000002624
 24       0.009735470756
 25      -0.070324297279
 26      -0.201521127536
 27       0.379681332512
 28       0.884749383264
 29      -0.074973001235
 30      -0.147609663028
 Sym=     1a
 Ene= 5.01696682084254E+00
 Spin= Alpha
 Occup= 0.000000
  1      -0.000000000017
  2      -0.000000000012
  3       0.000000000023
  4       0.000000000008
  5      -0.000000000846
  6       0.000000001957
  7      -0.000000002810
  8       0.000000001251
  9      -0.000000002016
 10       0.000000003170
 11      -0.000000000495
 12       0.000000000895
 13      -0.000000001060
 14       0.000000000640
 15      -0.000000002862
 16       0.000000001026
 17      -0.000000001675
 18      -0.000000002701
 19      -0.000000000564
 20       0.000000002500
 21      -0.000000000897
 22       0.000000001460
 23       0.000000002360
 24      -0.256763073200
 25       0.722899032386
 26      -0.157701006417
 27       0.073072586981
 28       0.008190798332
 29      -0.508967038651
 30       0.349522484559
 Sym=     1a
 Ene= 5.04323387917034E+00
 Spin= Alpha
 Occup= 0.000000
  1       0.000000000128
  2       0.000000000160
  3      -0.000000000129
  4      -0.000000000087
  5      -0.002016286250
  6      -0.007205910373
  7      -0.003776001118
  8       0.004641513982
  9       0.016588062409
 10       0.008692383775
 11      -0.001649196990
 12      -0.005893979260
 13      -0.003088530085
 14       0.000000000487
 15      -0.000000000110
 16       0.000000000509
 17       0.000000001672
 18      -0.000000000764
 19      -0.000000000369
 20       0.000000000105
 21      -0.000000000421
 22      -0.000000001420
 23       0.000000000650
 24      -0.250668575350
 25      -0.202336816081
 26      -0.164745025852
 27       0.234206327739
 28      -0.306629837625
 29      -0.534046111332
 30      -0.659437371396
 Sym=     1a
 Ene= 5.04323388108419E+00
 Spin= Alpha
 Occup= 0.000000
  1       0.000000000439
  2       0.000000000549
  3      -0.000000000443
  4      -0.000000000296
  5       0.000216179490
  6      -0.003936331320
  7       0.007396441687
  8      -0.000497646408
  9       0.009061464717
 10      -0.017026664775
 11       0.000176820719
 12      -0.003219669866
 13       0.006049821139
 14      -0.000000002658
 15      -0.000000000749
 16       0.000000001487
 17       0.000000003532
 18      -0.000000001384
 19       0.000000002284
 20       0.000000000663
 21      -0.000000001231
 22      -0.000000003067
 23       0.000000001210
 24       0.491010285840
 25       0.295158939192
 26      -0.166512746474
 27      -0.643470805584
 28       0.173183897322
 29      -0.154566971692
 30      -0.419497936615
 Sym=     1a
 Ene= 5.05245218918609E+00
 Spin= Alpha
 Occup= 0.000000
  1       0.000000000013
  2       0.000000000015
  3      -0.000000000013
  4      -0.000000000008
  5       0.010574931276
  6      -0.002187093131
  7      -0.001473033626
  8      -0.023803361526
  9       0.004922975440
 10       0.003315682271
 11       0.008464443165
 12      -0.001750603610
 13      -0.001179052139
 14       0.000000000486
 15      -0.000000002450
 16       0.000000000174
 17       0.000000000713
 18       0.000000002229
 19      -0.000000000416
 20       0.000000002081
 21      -0.000000000149
 22      -0.000000000605
 23      -0.000000001894
 24      -0.196538642694
 25       0.539845307722
 26      -0.111649906428
 27       0.235840176765
 28      -0.101911224877
 29       0.629433525144
 30      -0.441638595882
 Sym=     1a
 Ene= 6.00169520577761E+00
 Spin= Alpha
 Occup= 0.000000
  1       0.000000001684
  2       0.000000002153
  3      -0.000000001707
  4      -0.000000000879
  5       0.000000000190
  6       0.000000001847
  7      -0.000000001408
  8      -0.000000000075
  9      -0.000000000737
 10       0.000000000562
 11       0.000000000005
 12       0.000000000046
 13      -0.000000000035
 14       0.099535660896
 15       0.247726799421
 16       1.120390272972
 17       0.116796930459
 18       0.120023334474
 19      -0.050988282771
 20      -0.126900891451
 21      -0.573932754985
 22      -0.059830565929
 23      -0.061483328261
 24       0.000000002286
 25       0.000000000816
 26       0.000000002969
 27       0.000000002788
 28      -0.000000000360
 29      -0.000000000317
 30       0.000000000328
 Sym=     1a
 Ene= 6.00169520686252E+00
 Spin= Alpha
 Occup= 0.000000
  1       0.000000007564
  2       0.000000010695
  3      -0.000000007092
  4      -0.000000004812
  5       0.000000000545
  6       0.000000001347
  7       0.000000001834
  8      -0.000000000215
  9      -0.000000000536
 10      -0.000000000731
 11       0.000000000014
 12       0.000000000034
 13       0.000000000046
 14       0.984511347094
 15       0.128363491146
 16      -0.145001003538
 17       0.534917613304
 18      -0.248385748444
 19      -0.504327218266
 20      -0.065755668984
 21       0.074278425485
 22      -0.274017676605
 23       0.127238445597
 24       0.000000002824
 25       0.000000000151
 26      -0.000000003255
 27       0.000000000912
 28      -0.000000000859
 29       0.000000000752
 30       0.000000001453
 Sym=     1a
 Ene= 6.06397670259638E+00
 Spin= Alpha
 Occup= 0.000000
  1      -0.000000007589
  2      -0.000000008940
  3       0.000000008239
  4       0.000000003841
  5       0.000000002323
  6      -0.000000000504
  7      -0.000000000278
  8      -0.000000000921
  9       0.000000000204
 10       0.000000000110
 11       0.000000000050
 12      -0.000000000011
 13      -0.000000000005
 14      -0.209345376332
 15       0.871667492750
 16      -0.078855695464
 17      -0.177866934347
 18      -0.716315723091
 19       0.106752350634
 20      -0.444492996737
 21       0.040211209703
 22       0.090700418972
 23       0.365273828756
 24      -0.000000000742
 25       0.000000002070
 26       0.000000000393
 27      -0.000000000643
 28      -0.000000003665
 29       0.000000001967
 30      -0.000000000555
 Sym=     1a
 Ene= 6.06397670955979E+00
 Spin= Alpha
 Occup= 0.000000
  1      -0.000000031169
  2      -0.000000044585
  3       0.000000028669
  4       0.000000020946
  5      -0.000000000159
  6       0.000000000067
  7       0.000000000064
  8       0.000000000062
  9      -0.000000000030
 10      -0.000000000025
 11      -0.000000000003
 12       0.000000000002
 13       0.000000000002
 14      -0.170447012267
 15       0.668621666493
 16      -0.262849549923
 17       0.445062015534
 18       0.781866731763
 19       0.086916747538
 20      -0.340953001596
 21       0.134035954234
 22      -0.226952307916
 23      -0.398700524576
 24      -0.000000000969
 25       0.000000002576
 26      -0.000000000642
 27       0.000000000415
 28       0.000000000327
 29      -0.000000002150
 30       0.000000001314
 Sym=     1a
 Ene= 6.08444009429083E+00
 Spin= Alpha
 Occup= 0.000000
  1       0.057216645185
  2       0.081328417757
  3      -0.052882520687
  4      -0.037679865733
  5       0.000000000121
  6       0.000000000938
  7      -0.000000000998
  8      -0.000000000053
  9      -0.000000000455
 10       0.000000000482
 11       0.000000000006
 12       0.000000000067
 13      -0.000000000070
 14      -0.549868962249
 15      -0.264279490741
 16       0.054657761646
 17       0.908060150367
 18      -0.392390196438
 19       0.279915971108
 20       0.134533962233
 21      -0.027824048050
 22      -0.462256567149
 23       0.199749922795
 24      -0.000000001672
 25      -0.000000001022
 26       0.000000000876
 27       0.000000002297
 28      -0.000000000325
 29       0.000000001185
 30       0.000000002535
 Sym=     1a
 Ene= 6.87601749428129E+00
 Spin= Alpha
 Occup= 0.000000
  1      -2.301618126015
  2      -2.917126471823
  3       2.415605920987
  4       1.209563088123
  5      -0.000000000057
  6      -0.000000002125
  7       0.000000002184
  8       0.000000000069
  9       0.000000002405
 10      -0.000000002473
 11      -0.000000000028
 12      -0.000000000953
 13       0.000000000981
 14      -0.012762700206
 15      -0.006134056724
 16       0.001268635185
 17       0.021076481630
 18      -0.009107561281
 19       0.007950715273
 20       0.003821301409
 21      -0.000790315040
 22      -0.013129908924
 23       0.005673692048
 24       0.000000000027
 25       0.000000000009
 26      -0.000000000013
 27      -0.000000000037
 28       0.000000000003
 29      -0.000000000013
 30      -0.000000000041
 Sym=     1a
 Ene= -1.92168212147958E+01
 Spin=Beta
 Occup= 1.000000
  1      -0.972540422327
  2       0.002624930187
  3      -0.048738963811
  4      -0.002249030268
  5       0.000000000000
  6      -0.000000000119
  7       0.000000000121
  8       0.000000000001
  9       0.000000000071
 10      -0.000000000073
 11       0.000000000000
 12      -0.000000000025
 13       0.000000000026
 14       0.000265682076
 15       0.000127706730
 16      -0.000026412928
 17      -0.000438775637
 18       0.000189601490
 19      -0.000031591092
 20      -0.000015188105
 21       0.000003141463
 22       0.000052178648
 23      -0.000022546851
 24      -0.000000000001
 25      -0.000000000001
 26       0.000000000000
 27       0.000000000001
 28      -0.000000000000
 29       0.000000000001
 30       0.000000000001
 Sym=     1a
 Ene= -8.54263830447724E-01
 Spin=Beta
 Occup= 1.000000
  1      -0.019767027031
  2       0.542324687506
  3       0.162890907982
  4       0.419408216191
  5      -0.000000000261
  6      -0.000000001764
  7       0.000000001870
  8      -0.000000000310
  9      -0.000000001472
 10       0.000000001583
 11      -0.000000000131
 12      -0.000000000300
 13       0.000000000344
 14      -0.002464803481
 15      -0.001184726773
 16       0.000245027690
 17       0.004070524052
 18      -0.001758920080
 19      -0.003204402243
 20      -0.001540091928
 21       0.000318517397
 22       0.005291749512
 23      -0.002286674564
 24       0.000000000049
 25       0.000000000037
 26      -0.000000000026
 27      -0.000000000067
 28       0.000000000013
 29      -0.000000000046
 30      -0.000000000070
 Sym=     1a
 Ene= -3.28046109868490E-01
 Spin=Beta
 Occup= 1.000000
  1      -0.000000000007
  2       0.000000000215
  3       0.000000000068
  4       0.000000000171
  5       0.375955927886
  6      -0.077754299219
  7      -0.052369338877
  8       0.430510156412
  9      -0.089037106423
 10      -0.059968362740
 11       0.383352936234
 12      -0.079284216762
 13      -0.053399542115
 14       0.000000000029
 15      -0.000000000067
 16       0.000000000006
 17       0.000000000007
 18       0.000000000071
 19       0.000000000238
 20      -0.000000000762
 21       0.000000000061
 22       0.000000000169
 23       0.000000000746
 24       0.000170158791
 25      -0.000467494817
 26       0.000096680710
 27      -0.000204206155
 28       0.000088238434
 29      -0.000545010227
 30       0.000382421737
 Sym=     1a
 Ene= -1.73926105959041E-01
 Spin=Beta
 Occup= 0.000000
  1      -0.000000000758
  2      -0.000000000696
  3      -0.000000000227
  4       0.000000004087
  5      -0.050102553624
  6      -0.003033615045
  7      -0.355180395792
  8      -0.057073068589
  9      -0.003455643424
 10      -0.404593521898
 11      -0.064680292891
 12      -0.003916139910
 13      -0.458521776115
 14      -0.000000000056
 15      -0.000000000001
 16       0.000000000019
 17       0.000000000051
 18      -0.000000000019
 19       0.000000000988
 20       0.000000000113
 21      -0.000000000867
 22       0.000000000080
 23      -0.000000000159
 24       0.001285263779
 25       0.000831360842
 26      -0.000152163486
 27      -0.001577227439
 28       0.000701226161
 29       0.000291754929
 30      -0.000105644061
 Sym=     1a
 Ene= -1.73925608650329E-01
 Spin=Beta
 Occup= 0.000000
  1      -0.000000000774
  2      -0.000000000695
  3      -0.000000000228
  4       0.000000004183
  5       0.070865135229
  6       0.351399435391
  7      -0.012997687087
  8       0.080724073606
  9       0.400287183465
 10      -0.014805934207
 11       0.091483627275
 12       0.453641082570
 13      -0.016779505112
 14      -0.000000000019
 15      -0.000000000009
 16       0.000000000025
 17       0.000000000062
 18      -0.000000000048
 19      -0.000000000505
 20      -0.000000000195
 21      -0.000000000912
 22      -0.000000000803
 23       0.000000000097
 24       0.000047043148
 25      -0.000076975761
 26      -0.000524845038