[Molden Format]
[Title]
 Molden file created by orca_2mkl for BaseName=orca

[Atoms] AU
N    1   7         51.7917241524         2.4056213685        52.6402130762 
[GTO]
  1 0
s   8 1.0 
    11420.0000000000         0.4212093071
     1712.0000000000         0.7848615221
      389.3000000000         1.3273975977
      110.0000000000         1.9989872282
       35.5700000000         2.4748758656
       12.5400000000         2.1060076679
        4.6440000000         0.8013747684
        0.5118000000        -0.0037531799
s   8 1.0 
    11420.0000000000        -0.1565041181
     1712.0000000000        -0.2934466844
      389.3000000000        -0.4992401207
      110.0000000000        -0.7752671946
       35.5700000000        -1.0288246585
       12.5400000000        -1.0842399649
        4.6440000000        -0.6722979466
        0.5118000000         0.4472128530
s   1 1.0 
        1.2930000000         0.8641895012
s   1 1.0 
        0.1787000000         0.1958860490
p   3 1.0 
       26.6300000000         3.4325416128
        5.9480000000         3.2969151869
        1.7420000000         2.3120245012
p   1 1.0 
        0.5550000000         0.6828201314
p   1 1.0 
        0.1725000000         0.1584624850
d   1 1.0 
        1.6540000000         6.8771297418
d   1 1.0 
        0.4690000000         0.7577440909
f   1 1.0 
        1.0930000000         6.9645882147

[5D]
[7F]
[9G]
[MO]
 Sym=     1a
 Ene= -1.44302213258537E+01
 Spin= Alpha
 Occup= 1.000000
  1      -0.969317140162
  2       0.004934194191
  3      -0.053778880770
  4      -0.003200846338
  5       0.000000000000
  6      -0.000000000819
  7       0.000000000819
  8      -0.000000000000
  9       0.000000000479
 10      -0.000000000479
 11       0.000000000000
 12      -0.000000000132
 13       0.000000000132
 14      -0.000000005336
 15      -0.000000000138
 16       0.000000000000
 17      -0.000000004289
 18       0.000000000138
 19       0.000000002287
 20       0.000000000060
 21      -0.000000000000
 22       0.000000001817
 23      -0.000000000060
 24       0.000000000131
 25      -0.000000000182
 26      -0.000000000087
 27      -0.000000000211
 28      -0.000000000000
 29       0.000000000141
 30      -0.000000000233
 Sym=     1a
 Ene= -8.06109280926994E-01
 Spin= Alpha
 Occup= 1.000000
  1       0.009131114876
  2      -0.590099902994
  3      -0.173593477848
  4      -0.358520841469
  5      -0.000000000004
  6      -0.000000016843
  7       0.000000016843
  8      -0.000000000005
  9      -0.000000023413
 10       0.000000023412
 11       0.000000000002
 12      -0.000000009906
 13       0.000000009907
 14      -0.000000010068
 15      -0.000000000208
 16       0.000000000000
 17      -0.000000009938
 18       0.000000000208
 19       0.000000441436
 20       0.000000011650
 21      -0.000000000000
 22       0.000000348385
 23      -0.000000011650
 24       0.000000007916
 25      -0.000000010974
 26      -0.000000005224
 27      -0.000000012741
 28      -0.000000000000
 29       0.000000008500
 30      -0.000000014061
 Sym=     1a
 Ene= -3.51314504802844E-01
 Spin= Alpha
 Occup= 1.000000
  1      -0.000000000974
  2      -0.000000027862
  3      -0.000000007700
  4      -0.000000011646
  5       0.022162054050
  6       0.383807101899
  7      -0.000410750743
  8       0.027185023768
  9       0.470796113876
 10      -0.000503846293
 11       0.020466948626
 12       0.354451035091
 13      -0.000379333722
 14       0.000000000274
 15       0.000000000131
 16      -0.000000003809
 17      -0.000000005870
 18      -0.000000003478
 19       0.000000032189
 20       0.000000005234
 21      -0.000000026991
 22      -0.000000066930
 23      -0.000000070019
 24       0.000000000077
 25      -0.000000002598
 26      -0.000000080954
 27      -0.000000000198
 28       0.000000000957
 29      -0.000000005609
 30       0.000000120008
 Sym=     1a
 Ene= -3.51314495770723E-01
 Spin= Alpha
 Occup= 1.000000
  1       0.000000000032
  2       0.000000000815
  3       0.000000000224
  4       0.000000000324
  5       0.383649067177
  6      -0.022164711068
  7      -0.011019976646
  8       0.470602020627
  9      -0.027188288573
 10      -0.013517622433
 11       0.354304919351
 12      -0.020469407069
 13      -0.010177092150
 14       0.000000003035
 15       0.000000002236
 16       0.000000000110
 17       0.000000001927
 18      -0.000000002139
 19       0.000000055648
 20       0.000000089942
 21       0.000000000783
 22       0.000000034609
 23      -0.000000088064
 24       0.000000001091
 25      -0.000000021396
 26       0.000000003313
 27      -0.000000003622
 28      -0.000000000028
 29      -0.000000073629
 30      -0.000000010237
 Sym=     1a
 Ene= -3.51314477624551E-01
 Spin= Alpha
 Occup= 1.000000
  1       0.000000000977
  2       0.000000027890
  3       0.000000007707
  4       0.000000011647
  5       0.011025328101
  6      -0.000225365864
  7       0.384288659948
  8       0.013524182740
  9      -0.000276444408
 10       0.471386427164
 11       0.010182031823
 12      -0.000208128344
 13       0.354895500797
 14      -0.000000005037
 15       0.000000003415
 16       0.000000003812
 17       0.000000003124
 18      -0.000000000065
 19      -0.000000043536
 20       0.000000067434
 21       0.000000027010
 22       0.000000060446
 23      -0.000000002600
 24       0.000000023876
 25       0.000000000355
 26       0.000000000009
 27       0.000000018430
 28      -0.000000000957
 29      -0.000000000461
 30      -0.000000000165
 Sym=     1a
 Ene= 4.26642980847328E-01
 Spin= Alpha
 Occup= 0.000000
  1       0.000000207969
  2       0.000000616623
  3       0.000000122315
  4      -0.000000749503
  5      -0.007616491806
  6       0.000076988093
  7      -0.272847098476
  8      -0.020986548519
  9       0.000212133668
 10      -0.751805295140
 11       0.033841262634
 12      -0.000342070115
 13       1.212302271687
 14       0.000000008499
 15      -0.000000004507
 16      -0.000000006623
 17      -0.000000004162
 18       0.000000000043
 19      -0.000000023825
 20       0.000000004277
 21       0.000000019878
 22       0.000000004290
 23       0.000000000320
 24      -0.000000021415
 25      -0.000000000673
 26       0.000000000007
 27      -0.000000014259
 28       0.000000000598
 29       0.000000000405
 30       0.000000000035
 Sym=     1a
 Ene= 4.26643145723374E-01
 Spin= Alpha
 Occup= 0.000000
  1      -0.000000002460
  2      -0.000000007291
  3      -0.000000001446
  4       0.000000008867
  5      -0.272812001349
  6       0.004375876529
  7       0.007616746796
  8      -0.751708663417
  9       0.012057329770
 10       0.020987253219
 11       1.212146366639
 12      -0.019442703105
 13      -0.033842396629
 14      -0.000000004118
 15      -0.000000001448
 16       0.000000000079
 17      -0.000000002269
 18       0.000000001501
 19       0.000000004783
 20      -0.000000011560
 21      -0.000000000236
 22       0.000000002545
 23       0.000000011505
 24       0.000000000141
 25      -0.000000000145
 26       0.000000000148
 27       0.000000001280
 28      -0.000000000007
 29       0.000000036142
 30       0.000000001457
 Sym=     1a
 Ene= 4.26643432583686E-01
 Spin= Alpha
 Occup= 0.000000
  1      -0.000000208003
  2      -0.000000616724
  3      -0.000000122335
  4       0.000000749626
  5      -0.004376320461
  6      -0.272918285790
  7       0.000045156248
  8      -0.012058555199
  9      -0.752001644273
 10       0.000124423957
 11       0.019444676927
 12       1.212618648847
 13      -0.000200636277
 14       0.000000000692
 15      -0.000000000024
 16       0.000000006624
 17       0.000000009470
 18       0.000000004490
 19      -0.000000008248
 20      -0.000000000184
 21      -0.000000019882
 22      -0.000000022810
 23      -0.000000004417
 24      -0.000000000004
 25       0.000000000415
 26       0.000000016806
 27       0.000000000017
 28      -0.000000000598
 29       0.000000001378
 30      -0.000000034697
 Sym=     1a
 Ene= 4.87736035118084E-01
 Spin= Alpha
 Occup= 0.000000
  1      -0.454321663497
  2      -1.365343163257
  3      -0.282720723852
  4       1.658931108994
  5      -0.000000000002
  6       0.000000121527
  7      -0.000000121524
  8      -0.000000000013
  9       0.000000337836
 10      -0.000000337825
 11       0.000000000028
 12      -0.000000546382
 13       0.000000546371
 14      -0.000000055603
 15      -0.000000001410
 16      -0.000000000000
 17      -0.000000045773
 18       0.000000001410
 19       0.000000352472
 20       0.000000009180
 21       0.000000000006
 22       0.000000281933
 23      -0.000000009183
 24      -0.000000001650
 25       0.000000002288
 26       0.000000001089
 27       0.000000002657
 28      -0.000000000000
 29      -0.000000001772
 30       0.000000002932
 Sym=     1a
 Ene= 9.86195131145752E-01
 Spin= Alpha
 Occup= 0.000000
  1      -0.000000118588
  2      -0.000000574073
  3      -0.000000135359
  4       0.000000315416
  5       0.000000019671
  6      -0.000000048884
  7       0.000000036378
  8       0.000000003403
  9       0.000000011335
 10       0.000000008584
 11       0.000000017294
 12      -0.000000061063
 13       0.000000029892
 14       0.000070308656
 15      -0.000076826128
 16       0.000001326903
 17       0.002645706842
 18       0.000031550989
 19      -0.026591716849
 20       0.029053230823
 21      -0.000501790887
 22      -1.000529111354
 23      -0.011931659589
 24       0.000000012796
 25      -0.000000004453
 26      -0.000000004913
 27      -0.000000002070
 28      -0.000000000101
 29      -0.000000005883
 30       0.000000004192
 Sym=     1a
 Ene= 9.86195144307369E-01
 Spin= Alpha
 Occup= 0.000000
  1       0.000000139079
  2       0.000000684417
  3       0.000000164506
  4      -0.000000372434
  5      -0.000000038153
  6      -0.000000017627
  7       0.000000033419
  8      -0.000000009248
  9      -0.000000015776
 10      -0.000000017718
 11      -0.000000031126
 12      -0.000000003871
 13       0.000000050853
 14      -0.002644956288
 15      -0.000106692157
 16       0.000001460415
 17       0.000067120228
 18       0.000007188444
 19       1.000236280942
 20       0.040347419213
 21      -0.000552280290
 22      -0.025379642793
 23      -0.002718553583
 24      -0.000000013381
 25       0.000000006934
 26       0.000000008950
 27       0.000000000473
 28      -0.000000000106
 29       0.000000008656
 30      -0.000000015120
 Sym=     1a
 Ene= 9.86195236458577E-01
 Spin= Alpha
 Occup= 0.000000
  1       0.000000001491
  2       0.000000007344
  3       0.000000001766
  4      -0.000000003990
  5      -0.000000054389
  6       0.000000001711
  7      -0.000000044003
  8      -0.000000033483
  9       0.000000000631
 10      -0.000000009019
 11      -0.000000025823
 12       0.000000001197
 13      -0.000000037402
 14       0.000104669022
 15      -0.002644235704
 16       0.000050753671
 17      -0.000079578153
 18      -0.000001005716
 19      -0.039582080434
 20       0.999955738986
 21      -0.019193254240
 22       0.030093670312
 23       0.000380334716
 24       0.000000003580
 25      -0.000000001609
 26       0.000000000099
 27       0.000000013438
 28      -0.000000002455
 29      -0.000000009945
 30       0.000000000675
 Sym=     1a
 Ene= 9.86195421716609E-01
 Spin= Alpha
 Occup= 0.000000
  1      -0.000000000115
  2      -0.000000000566
  3      -0.000000000134
  4       0.000000000302
  5       0.000000000860
  6       0.000000023171
  7      -0.000000022533
  8       0.000000000520
  9      -0.000000016591
 10       0.000000016741
 11       0.000000000417
 12       0.000000039193
 13      -0.000000038668
 14       0.000000362150
 15      -0.000050765676
 16      -0.002645949334
 17       0.000000932819
 18      -0.000091365545
 19      -0.000136955814
 20       0.019197573980
 21       1.000594795759
 22      -0.000352758894
 23       0.034550905003
 24      -0.000000002362
 25       0.000000000283
 26      -0.000000016134
 27      -0.000000018810
 28       0.000000000037
 29      -0.000000000057
 30      -0.000000009561
 Sym=     1a
 Ene= 9.86195524896798E-01
 Spin= Alpha
 Occup= 0.000000
  1      -0.000000004688
  2      -0.000000023242
  3      -0.000000005633
  4       0.000000012592
  5       0.000000055453
  6       0.000000040568
  7       0.000000001319
  8       0.000000033752
  9       0.000000009818
 10      -0.000000000520
 11       0.000000026683
 12       0.000000033111
 13       0.000000001844
 14      -0.000006399821
 15       0.000001551890
 16       0.000091356638
 17       0.000031726828
 18      -0.002646251928
 19       0.002419995480
 20      -0.000586858332
 21      -0.034547319318
 22      -0.011997779276
 23       1.000704126926
 24       0.000000000196
 25       0.000000009044
 26       0.000000012880
 27       0.000000000621
 28       0.000000002459
 29       0.000000003811
 30       0.000000005657
 Sym=     1a
 Ene= 2.74395399597711E+00
 Spin= Alpha
 Occup= 0.000000
  1       0.000000023013
  2       0.000000029149
  3      -0.000000023675
  4      -0.000000012776
  5       0.034710750975
  6      -0.000370882738
  7       1.245044459802
  8      -0.041883799846
  9       0.000447526425
 10      -1.502335486380
 11       0.017910242733
 12      -0.000191370098
 13       0.642424835618
 14      -0.000000004688
 15       0.000000001871
 16       0.000000003750
 17       0.000000001753
 18       0.000000000009
 19      -0.000000014176
 20       0.000000013040
 21       0.000000010180
 22       0.000000011816
 23      -0.000000000361
 24      -0.000000053033
 25      -0.000000001606
 26       0.000000000018
 27      -0.000000036395
 28       0.000000001451
 29       0.000000001035
 30       0.000000000091
 Sym=     1a
 Ene= 2.74395417391685E+00
 Spin= Alpha
 Occup= 0.000000
  1       0.000000000275
  2       0.000000000349
  3      -0.000000000284
  4      -0.000000000152
  5      -1.244888948596
  6       0.019680205722
  7       0.034712277942
  8       1.502147765129
  9      -0.023747160105
 10      -0.041885640311
 11      -0.642344575117
 12       0.010154699664
 13       0.017911030097
 14      -0.000000001774
 15       0.000000000350
 16       0.000000000045
 17      -0.000000000969
 18      -0.000000000327
 19      -0.000000011334
 20      -0.000000012735
 21       0.000000000123
 22      -0.000000006303
 23       0.000000012888
 24      -0.000000000296
 25      -0.000000000396
 26      -0.000000000391
 27      -0.000000003275
 28       0.000000000018
 29      -0.000000091442
 30      -0.000000003680
 Sym=     1a
 Ene= 2.74395448750403E+00
 Spin= Alpha
 Occup= 0.000000
  1      -0.000000023015
  2      -0.000000029152
  3       0.000000023676
  4       0.000000012779
  5       0.019682898239
  6       1.245372799542
  7      -0.000177761449
  8      -0.023750406880
  9      -1.502731481968
 10       0.000214496189
 11       0.010156088430
 12       0.642594201966
 13      -0.000091722314
 14      -0.000000000846
 15      -0.000000000005
 16      -0.000000003750
 17      -0.000000004949
 18      -0.000000001876
 19       0.000000003010
 20       0.000000000205
 21      -0.000000010181
 22      -0.000000018264
 23      -0.000000012885
 24      -0.000000000011
 25       0.000000001069
 26       0.000000042504
 27       0.000000000040
 28      -0.000000001451
 29       0.000000003389
 30      -0.000000086255
 Sym=     1a
 Ene= 3.80590814669219E+00
 Spin= Alpha
 Occup= 0.000000
  1       0.000000041905
  2       0.000000049396
  3      -0.000000044791
  4      -0.000000030077
  5      -0.000000017983
  6       0.000000000018
  7      -0.000000005793
  8       0.000000075787
  9      -0.000000002021
 10       0.000000011094
 11      -0.000000018393
 12       0.000000000066
 13      -0.000000005917
 14       0.000000018421
 15      -0.000000020203
 16      -0.000000001776
 17       0.000000006747
 18       0.000000011711
 19      -0.000000022064
 20       0.000000013629
 21       0.000000003331
 22      -0.000000012353
 23      -0.000000015298
 24      -0.258499415946
 25       0.894333884494
 26      -0.018460101229
 27       0.166906988893
 28      -0.000836731365
 29       0.323834538080
 30       0.016635160016
 Sym=     1a
 Ene= 3.80590814733440E+00
 Spin= Alpha
 Occup= 0.000000
  1       0.000000037952
  2       0.000000044737
  3      -0.000000040567
  4      -0.000000027240
  5       0.000000003606
  6      -0.000000000032
  7      -0.000000024763
  8      -0.000000016691
  9       0.000000000735
 10       0.000000051084
 11       0.000000003694
 12      -0.000000000049
 13      -0.000000025331
 14       0.000000025347
 15       0.000000011003
 16      -0.000000006406
 17       0.000000003134
 18      -0.000000003535
 19      -0.000000021551
 20      -0.000000010809
 21       0.000000010894
 22      -0.000000011197
 23       0.000000004814
 24      -0.810697545826
 25      -0.293052211087
 26       0.006121154124
 27       0.498003733032
 28      -0.002081874360
 29      -0.093863251159
 30      -0.005482700795
 Sym=     1a
 Ene= 3.80590834928318E+00
 Spin= Alpha
 Occup= 0.000000
  1      -0.000000016672
  2      -0.000000019652
  3       0.000000017820
  4       0.000000011966
  5      -0.000000001417
  6      -0.000000045377
  7       0.000000000083
  8       0.000000003612
  9       0.000000221153
 10      -0.000000000207
 11      -0.000000001431
 12      -0.000000048640
 13       0.000000000085
 14       0.000000031102
 15      -0.000000000463
 16      -0.000000022466
 17       0.000000021508
 18       0.000000007492
 19      -0.000000033004
 20       0.000000000535
 21       0.000000018720
 22      -0.000000017292
 23      -0.000000010653
 24       0.000646903221
 25       0.018900694994
 26       0.788159830248
 27       0.000424677581
 28       0.014281698366
 29       0.024632698081
 30      -0.614520553078
 Sym=     1a
 Ene= 3.80590842876514E+00
 Spin= Alpha
 Occup= 0.000000
  1      -0.000000025755
  2      -0.000000030360
  3       0.000000027529
  4       0.000000018486
  5      -0.000000001507
  6      -0.000000000095
  7      -0.000000055976
  8       0.000000002889
  9       0.000000000267
 10       0.000000119176
 11      -0.000000001505
 12      -0.000000000098
 13      -0.000000056081
 14       0.000000018595
 15      -0.000000014430
 16       0.000000037614
 17       0.000000017527
 18       0.000000000920
 19      -0.000000017161
 20       0.000000020554
 21      -0.000000036999
 22      -0.000000013615
 23      -0.000000000507
 24      -0.524544612172
 25      -0.003915359895
 26       0.000185604355
 27      -0.850561840649
 28      -0.021319949149
 29       0.030455083316
 30      -0.000297069772
 Sym=     1a
 Ene= 3.80590857449200E+00
 Spin= Alpha
 Occup= 0.000000
  1      -0.000000041583
  2      -0.000000049016
  3       0.000000044447
  4       0.000000029845
  5      -0.000000073848
  6       0.000000000015
  7       0.000000002484
  8       0.000000184217
  9      -0.000000002603
 10      -0.000000006301
 11      -0.000000074487
 12       0.000000000052
 13       0.000000002509
 14       0.000000005450
 15      -0.000000002709
 16      -0.000000001289
 17       0.000000002750
 18       0.000000019372
 19      -0.000000008323
 20       0.000000009750
 21       0.000000001341
 22      -0.000000004669
 23      -0.000000010725
 24       0.025044875169
 25      -0.337476314801
 26      -0.001098220510
 27       0.019738265017
 28       0.001342738963
 29       0.940433377773
 30       0.025979703685
 Sym=     1a
 Ene= 3.80590863282211E+00
 Spin= Alpha
 Occup= 0.000000
  1       0.000000053403
  2       0.000000062950
  3      -0.000000057082
  4      -0.000000038329
  5      -0.000000000003
  6       0.000000030286
  7      -0.000000000186
  8       0.000000002274
  9      -0.000000097281
 10       0.000000000434
 11      -0.000000000032
 12       0.000000031663
 13      -0.000000000188
 14       0.000000002898
 15       0.000000000682
 16      -0.000000030815
 17      -0.000000011747
 18       0.000000011760
 19       0.000000005031
 20      -0.000000000391
 21       0.000000033800
 22       0.000000006407
 23      -0.000000017955
 24      -0.001207173425
 25       0.004947242012
 26       0.613744733088
 27      -0.001352082956
 28       0.049562211212
 29      -0.019278426873
 30       0.787693831056
 Sym=     1a
 Ene= 3.80590869446489E+00
 Spin= Alpha
 Occup= 0.000000
  1       0.000000002794
  2       0.000000003294
  3      -0.000000002987
  4      -0.000000002005
  5      -0.000000000080
  6      -0.000000000422
  7       0.000000002525
  8       0.000000000322
  9       0.000000001412
 10      -0.000000005738
 11      -0.000000000082
 12      -0.000000000442
 13       0.000000002571
 14       0.000000000131
 15      -0.000000011845
 16      -0.000000002641
 17      -0.000000000658
 18       0.000000012866
 19       0.000000000196
 20       0.000000003420
 21       0.000000002712
 22       0.000000000389
 23      -0.000000004891
 24       0.013090816030
 25       0.000007254961
 26       0.041737275767
 27       0.016949530748
 28      -0.998437901330
 29      -0.000065882924
 30       0.030349572481
 Sym=     1a
 Ene= 4.32266782441862E+00
 Spin= Alpha
 Occup= 0.000000
  1      -0.000000207619
  2      -0.000000291243
  3       0.000000193012
  4       0.000000152412
  5      -0.000000002769
  6      -0.000000002287
  7       0.000000009389
  8      -0.000000001287
  9      -0.000000001387
 10       0.000000001867
 11       0.000000001655
 12       0.000000001443
 13      -0.000000005028
 14       1.099605988871
 15       0.056677069359
 16      -0.000772336871
 17      -0.398602266453
 18       0.000765913654
 19      -0.570022361500
 20      -0.029380702950
 21       0.000400370031
 22       0.206630564369
 23      -0.000397039640
 24       0.000000023924
 25      -0.000000004056
 26      -0.000000018157
 27      -0.000000004137
 28      -0.000000000496
 29      -0.000000005894
 30       0.000000006720
 Sym=     1a
 Ene= 4.32266796117387E+00
 Spin= Alpha
 Occup= 0.000000
  1       0.000000000448
  2       0.000000000620
  3      -0.000000000423
  4      -0.000000000324
  5       0.000000000832
  6      -0.000000000054
  7       0.000000004576
  8       0.000000002360
  9      -0.000000000062
 10       0.000000001907
 11      -0.000000000959
 12       0.000000000041
 13      -0.000000002684
 14       0.050455688079
 15      -1.169404214913
 16       0.021038724130
 17      -0.027127587853
 18       0.000206282464
 19      -0.026155614018
 20       0.606204896692
 21      -0.010906218327
 22       0.014062610831
 23      -0.000106934283
 24       0.000000004338
 25      -0.000000017529
 26      -0.000000000209
 27       0.000000012321
 28       0.000000010371
 29      -0.000000009262
 30       0.000000000326
 Sym=     1a
 Ene= 4.32266820366032E+00
 Spin= Alpha
 Occup= 0.000000
  1       0.000000342127
  2       0.000000482362
  3      -0.000000316706
  4      -0.000000252118
  5       0.000000003221
  6      -0.000000009411
  7       0.000000000628
  8       0.000000001345
  9      -0.000000001772
 10       0.000000001058
 11      -0.000000001890
 12       0.000000005017
 13      -0.000000000554
 14      -0.399386169161
 15       0.008279552356
 16      -0.000964481342
 17      -1.100621729351
 18      -0.016840029954
 19       0.207036937106
 20      -0.004292019585
 21       0.000499975369
 22       0.570548932821
 23       0.008729666548
 24      -0.000000020911
 25       0.000000006011
 26       0.000000015440
 27      -0.000000009870
 28      -0.000000000223
 29       0.000000007857
 30      -0.000000022651
 Sym=     1a
 Ene= 4.32266841668025E+00
 Spin= Alpha
 Occup= 0.000000
  1      -0.000000000543
  2      -0.000000000764
  3       0.000000000503
  4       0.000000000400
  5      -0.000000000017
  6      -0.000000006951
  7       0.000000006906
  8      -0.000000000034
  9      -0.000000000993
 10       0.000000000969
 11       0.000000000016
 12       0.000000003631
 13      -0.000000003604
 14       0.000713038776
 15      -0.021056429008
 16      -1.170229906647
 17       0.001169947095
 18      -0.036705392828
 19      -0.000369630634
 20       0.010915395798
 21       0.606632904921
 22      -0.000606486349
 23       0.019027627860
 24      -0.000000011961
 25      -0.000000000182
 26      -0.000000030970
 27      -0.000000030042
 28      -0.000000000139
 29       0.000000000425
 30      -0.000000008831
 Sym=     1a
 Ene= 4.32266867806451E+00
 Spin= Alpha
 Occup= 0.000000
  1      -0.000000013126
  2      -0.000000018420
  3       0.000000012199
  4       0.000000009636
  5      -0.000000000991
  6      -0.000000003887
  7      -0.000000000219
  8      -0.000000002430
  9      -0.000000001768
 10      -0.000000000044
 11       0.000000001053
 12       0.000000002314
 13       0.000000000117
 14       0.006453150799
 15       0.000372245772
 16       0.036720316232
 17       0.015535066824
 18      -1.170298709287
 19      -0.003345235329
 20      -0.000192967652
 21      -0.019035363443
 22      -0.008053189067
 23       0.606668559845
 24       0.000000000692
 25       0.000000004309
 26       0.000000012160
 27       0.000000001084
 28      -0.000000010381
 29       0.000000018938
 30       0.000000005523
 Sym=     1a
 Ene= 5.13416080053534E+00
 Spin= Alpha
 Occup= 0.000000
  1      -2.278400016921
  2      -2.944645838425
  3       2.421597523850
  4       1.229001261674
  5       0.000000000001
  6      -0.000000011780
  7       0.000000011781
  8      -0.000000000002
  9       0.000000015975
 10      -0.000000015976
 11       0.000000000001
 12      -0.000000008391
 13       0.000000008392
 14      -0.000000147049
 15      -0.000000003814
 16      -0.000000000003
 17      -0.000000118265
 18       0.000000003817
 19       0.000000075968
 20       0.000000001947
 21       0.000000000001
 22       0.000000061870
 23      -0.000000001948
 24      -0.000000012498
 25       0.000000017326
 26       0.000000008248
 27       0.000000020115
 28      -0.000000000001
 29      -0.000000013420
 30       0.000000022199
 Sym=     1a
 Ene= -1.43715991909785E+01
 Spin=Beta
 Occup= 1.000000
  1       0.973354609647
  2      -0.002483757298
  3       0.047906348469
  4       0.002152188702
  5      -0.000000000000
  6       0.000000001141
  7      -0.000000001141
  8       0.000000000000
  9      -0.000000000239
 10       0.000000000239
 11      -0.000000000000
 12       0.000000000093
 13      -0.000000000093
 14       0.000000007786
 15       0.000000000205
 16       0.000000000000
 17       0.000000006160
 18      -0.000000000205
 19      -0.000000002219
 20      -0.000000000058
 21      -0.000000000000
 22      -0.000000001760
 23       0.000000000058
 24       0.000000000082
 25      -0.000000000113
 26      -0.000000000054
 27      -0.000000000132
 28      -0.000000000000
 29       0.000000000088
 30      -0.000000000145
 Sym=     1a
 Ene= -6.10017198129460E-01
 Spin=Beta
 Occup= 1.000000
  1       0.026400748064
  2      -0.522108141258
  3      -0.153699702115
  4      -0.444147352451
  5       0.000000000008
  6      -0.000000071372
  7       0.000000071375
  8       0.000000000009
  9      -0.000000112534
 10       0.000000112539
 11       0.000000000000
 12      -0.000000064254
 13       0.000000064255
 14      -0.000000117072
 15      -0.000000003105
 16       0.000000000000
 17      -0.000000091730
 18       0.000000003105
 19      -0.000000348453
 20      -0.000000009406
 21       0.000000000001
 22      -0.000000267590
 23       0.000000009406
 24      -0.000000006099
 25       0.000000008455
 26       0.000000004025
 27       0.000000009816
 28       0.000000000000
 29      -0.000000006549
 30       0.000000010833
 Sym=     1a
 Ene= -1.02445631760555E-01
 Spin=Beta
 Occup= 0.000000
  1      -0.000000012208
  2       0.000000091120
  3       0.000000033178
  4       0.000000106475
  5       0.009270990156
  6      -0.000097996118
  7       0.331631026464
  8       0.010399016199
  9      -0.000109919569
 10       0.371981455852
 11       0.014487224428
 12      -0.000153132697
 13       0.518220063300
 14      -0.000000005451
 15      -0.000000004255
 16       0.000000005369
 17      -0.000000003637
 18       0.000000000349
 19      -0.000000035988
 20      -0.000000020068
 21       0.000000034194
 22      -0.000000016933
 23       0.000000001883
 24       0.000000165310
 25       0.000000007161
 26      -0.000000000018
 27       0.000000096126
 28      -0.000000003179
 29      -0.000000003326
 30       0.000000000173
 Sym=     1a
 Ene= -1.02445063022019E-01
 Spin=Beta
 Occup= 0.000000
  1      -0.000000000130
  2       0.000000001009
  3       0.000000000366
  4       0.000000001151
  5      -0.331583374723
  6       0.005620493815
  7       0.009271318863
  8      -0.371927739044
  9       0.006304349838
 10       0.010399377425
 11      -0.518145985215
 12       0.008782817606
 13       0.014487748815
 14       0.000000003132
 15       0.000000012424
 16       0.000000000059
 17       0.000000001805
 18      -0.000000012466
 19       0.000000014200
 20       0.000000067038
 21       0.000000000376
 22       0.000000008242
 23      -0.000000067237
 24       0.000000007528
 25      -0.000000110688
 26       0.000000001823
 27      -0.000000001205
 28      -0.000000000035
 29       0.000000108532
 30      -0.000000007096
 Sym=     1a
 Ene= -1.02444125318868E-01
 Spin=Beta
 Occup= 0.000000
  1       0.000000012208
  2      -0.000000091131
  3      -0.000000033182
  4      -0.000000106480
  5       0.005621036488
  6       0.331712907798
  7      -0.000059119911
  8       0.006304950955
  9       0.372072598607
 10      -0.000066313062
 11       0.008783676358
 12       0.518349031950
 13      -0.000092383344
 14      -0.000000005839
 15      -0.000000000212
 16      -0.000000005371
 17      -0.000000002881
 18       0.000000004116
 19      -0.000000032497
 20      -0.000000001142
 21      -0.000000034199
 22      -0.000000022606
 23       0.000000019327
 24      -0.000000000079
 25       0.000000003175
 26       0.000000184142