[Molden Format]
[Title]
 Molden file created by orca_2mkl for BaseName=orca

[Atoms] AU
C    1   6         51.7917241524         2.4056213685        52.6402130762 
[GTO]
  1 0
s   8 1.0 
     8236.0000000000         0.3342267437
     1235.0000000000         0.6230746416
      280.8000000000         1.0531059072
       79.2700000000         1.5831631342
       25.5900000000         1.9450988312
        8.9970000000         1.6429469100
        3.3190000000         0.6196591261
        0.3643000000        -0.0030667276
s   8 1.0 
     8236.0000000000        -0.1210101098
     1235.0000000000        -0.2265691066
      280.8000000000        -0.3857532897
       79.2700000000        -0.5967016836
       25.5900000000        -0.7858351262
        8.9970000000        -0.8165330321
        3.3190000000        -0.5188700868
        0.3643000000         0.3477346660
s   1 1.0 
        0.9059000000         0.6617901318
s   1 1.0 
        0.1285000000         0.1529633682
p   3 1.0 
       18.7100000000         2.1868515589
        4.1330000000         2.0503123413
        1.2000000000         1.4599445297
p   1 1.0 
        0.3827000000         0.4290551959
p   1 1.0 
        0.1209000000         0.1016185431
d   1 1.0 
        1.0970000000         3.3522135855
d   1 1.0 
        0.3180000000         0.3838994974
f   1 1.0 
        0.7610000000         3.0840084332

[5D]
[7F]
[9G]
[MO]
 Sym=     1a
 Ene= -1.03035920121737E+01
 Spin= Alpha
 Occup= 1.000000
  1      -0.970494656444
  2       0.004498349664
  3      -0.052699530905
  4      -0.002987294647
  5      -0.000000000003
  6      -0.000000000005
  7       0.000000000001
  8       0.000000000010
  9       0.000000000015
 10      -0.000000000003
 11      -0.000000000012
 12      -0.000000000018
 13       0.000000000004
 14      -0.000362956253
 15       0.000000408668
 16       0.000007192136
 17      -0.000624641220
 18       0.000071272166
 19       0.000054237299
 20      -0.000000060985
 21      -0.000001074444
 22       0.000093340398
 23      -0.000010649558
 24       0.000000000000
 25      -0.000000000000
 26      -0.000000000000
 27       0.000000000000
 28       0.000000000000
 29       0.000000000000
 30       0.000000000000
 Sym=     1a
 Ene= -5.84706636208337E-01
 Spin= Alpha
 Occup= 1.000000
  1      -0.011912904698
  2       0.582121776488
  3       0.162285465714
  4       0.371336895076
  5       0.000000000000
  6       0.000000000027
  7       0.000000000000
  8      -0.000000000005
  9      -0.000000000005
 10       0.000000000001
 11       0.000000000002
 12       0.000000000010
 13       0.000000000000
 14       0.003709497890
 15      -0.000004176852
 16      -0.000073505982
 17       0.006383978083
 18      -0.000728409589
 19       0.003987759228
 20      -0.000004495308
 21      -0.000079038026
 22       0.006862927539
 23      -0.000783115892
 24      -0.000000000000
 25       0.000000000000
 26       0.000000000000
 27      -0.000000000000
 28       0.000000000000
 29       0.000000000000
 30       0.000000000000
 Sym=     1a
 Ene= -2.63656549660822E-01
 Spin= Alpha
 Occup= 1.000000
  1       0.000000000011
  2       0.000000000020
  3      -0.000000000009
  4      -0.000000000014
  5      -0.019192338441
  6       0.003242980106
  7      -0.374882843034
  8      -0.024192902741
  9       0.004087972627
 10      -0.472558623204
 11      -0.018356076762
 12       0.003101715802
 13      -0.358548236371
 14      -0.000000000000
 15       0.000000000000
 16      -0.000000000000
 17      -0.000000000000
 18       0.000000000000
 19       0.000000000000
 20      -0.000000000000
 21      -0.000000000001
 22       0.000000000000
 23      -0.000000000000
 24      -0.000541693038
 25      -0.000010601862
 26       0.000014574095
 27      -0.000694819851
 28       0.000079682542
 29       0.000042730992
 30      -0.000012340081
 Sym=     1a
 Ene= -2.63656438067524E-01
 Spin= Alpha
 Occup= 1.000000
  1      -0.000000000043
  2      -0.000000000072
  3       0.000000000039
  4       0.000000000041
  5      -0.374290450140
  6       0.021174178248
  7       0.019345180661
  8      -0.471811991717
  9       0.026691194626
 10       0.024385577066
 11      -0.357981907516
 12       0.020251689018
 13       0.018502275496
 14      -0.000000000002
 15      -0.000000000000
 16       0.000000000000
 17      -0.000000000001
 18       0.000000000003
 19       0.000000000001
 20       0.000000000000
 21       0.000000000000
 22       0.000000000000
 23      -0.000000000003
 24       0.000027955015
 25      -0.000220852296
 26       0.000011833404
 27       0.000036769294
 28       0.000003872677
 29       0.000844318596
 30      -0.000145078588
 Sym=     1a
 Ene= -1.50875798123067E-01
 Spin= Alpha
 Occup= 0.000000
  1       0.000000000044
  2       0.000000000032
  3      -0.000000000075
  4       0.000000000001
  5       0.019361481684
  6       0.340460666602
  7       0.001954029104
  8       0.024614437067
  9       0.432832177726
 10       0.002484154618
 11       0.024889036595
 12       0.437661943373
 13       0.002511861306
 14       0.000000000002
 15      -0.000000000000
 16       0.000000000000
 17       0.000000000000
 18      -0.000000000005
 19      -0.000000000002
 20       0.000000000000
 21      -0.000000000000
 22      -0.000000000002
 23       0.000000000003
 24       0.000036721351
 25       0.000148572665
 26       0.002612489475
 27       0.000047105538
 28      -0.000005369582
 29      -0.000572942539
 30      -0.003329583072
 Sym=     1a
 Ene= 2.92961307955914E-01
 Spin= Alpha
 Occup= 0.000000
  1      -0.000000000088
  2      -0.000000000219
  3       0.000000000001
  4       0.000000000229
  5      -0.014445742563
  6       0.002365198774
  7      -0.269019759232
  8      -0.041490253738
  9       0.006793215868
 10      -0.772663526789
 11       0.065607066932
 12      -0.010741930226
 13       1.221785508215
 14      -0.000000000000
 15       0.000000000001
 16       0.000000000000
 17      -0.000000000001
 18       0.000000000000
 19      -0.000000000000
 20      -0.000000000001
 21      -0.000000000001
 22      -0.000000000001
 23      -0.000000000000
 24      -0.000368916616
 25      -0.000007597331
 26       0.000009946725
 27      -0.000473201497
 28       0.000054277059
 29       0.000030542801
 30      -0.000008651415
 Sym=     1a
 Ene= 2.92961381209161E-01
 Spin= Alpha
 Occup= 0.000000
  1       0.000000000377
  2       0.000000001028
  3       0.000000000089
  4      -0.000000001151
  5      -0.268594983198
  6       0.015190357785
  7       0.014556485272
  8      -0.771443656265
  9       0.043628968780
 10       0.041808332364
 11       1.219856312672
 12      -0.068989035679
 13      -0.066110024937
 14      -0.000000000003
 15      -0.000000000000
 16      -0.000000000000
 17       0.000000000001
 18       0.000000000007
 19       0.000000000005
 20       0.000000000000
 21       0.000000000000
 22       0.000000000003
 23      -0.000000000005
 24       0.000019963486
 25      -0.000150415308
 26       0.000008031971
 27       0.000026227938
 28       0.000002502011
 29       0.000575030953
 30      -0.000098800221
 Sym=     1a
 Ene= 3.11514337211083E-01
 Spin= Alpha
 Occup= 0.000000
  1      -0.000000001156
  2      -0.000000003349
  3      -0.000000000485
  4       0.000000003884
  5       0.015916441011
  6       0.279893045393
  7       0.001606154950
  8       0.046777088229
  9       0.822583573720
 10       0.004720338142
 11      -0.068276710564
 12      -1.200660144165
 13      -0.006889854747
 14       0.000000000001
 15      -0.000000000000
 16       0.000000000000
 17      -0.000000000007
 18      -0.000000000011
 19      -0.000000000011
 20       0.000000000000
 21       0.000000000000
 22      -0.000000000014
 23       0.000000000009
 24       0.000023408746
 25       0.000094729500
 26       0.001665709373
 27       0.000030029428
 28      -0.000003421028
 29      -0.000365278931
 30      -0.002122898323
 Sym=     1a
 Ene= 3.46304975016297E-01
 Spin= Alpha
 Occup= 0.000000
  1       0.444225334053
  2       1.378487358768
  3       0.286201790754
  4      -1.668604314371
  5       0.000000000225
  6       0.000000000577
  7      -0.000000000040
  8       0.000000000583
  9       0.000000001928
 10      -0.000000000108
 11      -0.000000000945
 12      -0.000000002710
 13       0.000000000182
 14       0.002553696800
 15      -0.000002873805
 16      -0.000050596844
 17       0.004394844504
 18      -0.000501430410
 19       0.003125302475
 20      -0.000003518200
 21      -0.000061930980
 22       0.005378574121
 23      -0.000613694348
 24       0.000000000000
 25       0.000000000000
 26       0.000000000003
 27       0.000000000000
 28       0.000000000000
 29      -0.000000000001
 30      -0.000000000005
 Sym=     1a
 Ene= 6.53483001675371E-01
 Spin= Alpha
 Occup= 0.000000
  1      -0.000000004573
  2      -0.000000010582
  3       0.000000000336
  4       0.000000011228
  5       0.000000000000
  6       0.000000000000
  7      -0.000000000001
  8      -0.000000000000
  9      -0.000000000000
 10      -0.000000000000
 11       0.000000000000
 12      -0.000000000000
 13       0.000000000001
 14      -0.000230591546
 15      -0.005665597208
 16       0.000323731787
 17       0.000135967125
 18       0.000017216568
 19       0.040710557483
 20       1.000258274732
 21      -0.057152485331
 22      -0.024005305935
 23      -0.003039149057
 24      -0.000000000000
 25      -0.000000000000
 26       0.000000000000
 27       0.000000000000
 28       0.000000000000
 29       0.000000000000
 30       0.000000000000
 Sym=     1a
 Ene= 6.53483003855351E-01
 Spin= Alpha
 Occup= 0.000000
  1       0.000000029587
  2       0.000000067347
  3      -0.000000002939
  4      -0.000000072026
  5      -0.000000000001
  6      -0.000000000000
  7      -0.000000000000
  8      -0.000000000000
  9       0.000000000000
 10       0.000000000000
 11       0.000000000001
 12      -0.000000000000
 13      -0.000000000000
 14       0.004914484122
 15      -0.000267684365
 16      -0.000017350276
 17      -0.002819082490
 18       0.000323222848
 19      -0.867647031068
 20       0.047259509378
 21       0.003063374378
 22       0.497709796513
 23      -0.057066727164
 24       0.000000000000
 25      -0.000000000000
 26      -0.000000000000
 27       0.000000000000
 28       0.000000000000
 29      -0.000000000000
 30      -0.000000000000
 Sym=     1a
 Ene= 6.57079734600880E-01
 Spin= Alpha
 Occup= 0.000000
  1       0.000000014541
  2       0.000000029454
  3      -0.000000004323
  4      -0.000000031035
  5       0.000000000000
  6       0.000000000000
  7       0.000000000000
  8       0.000000000000
  9       0.000000000000
 10       0.000000000001
 11      -0.000000000000
 12      -0.000000000000
 13      -0.000000000001
 14       0.000090397193
 15       0.000519199244
 16       0.009092032507
 17       0.000094639555
 18       0.000369050962
 19      -0.009964119807
 20      -0.057234982891
 21      -1.002255216348
 22      -0.010431312699
 23      -0.040682352310
 24       0.000000000000
 25       0.000000000000
 26       0.000000000000
 27       0.000000000000
 28      -0.000000000000
 29      -0.000000000000
 30       0.000000000000
 Sym=     1a
 Ene= 6.57079772460963E-01
 Spin= Alpha
 Occup= 0.000000
  1       0.000000041405
  2       0.000000086905
  3      -0.000000010096
  4      -0.000000091895
  5       0.000000000001
  6       0.000000000001
  7      -0.000000000000
  8       0.000000000001
  9       0.000000000000
 10      -0.000000000000
 11      -0.000000000001
 12      -0.000000000001
 13       0.000000000000
 14      -0.000003771274
 15       0.000030676972
 16      -0.000379741999
 17       0.001030404558
 18       0.009048909220
 19       0.000416893343
 20      -0.003381757185
 21       0.041860113001
 22      -0.113580857666
 23      -0.997491914654
 24      -0.000000000000
 25       0.000000000000
 26       0.000000000000
 27      -0.000000000000
 28       0.000000000000
 29      -0.000000000000
 30       0.000000000000
 Sym=     1a
 Ene= 6.65639022835206E-01
 Spin= Alpha
 Occup= 0.000000
  1       0.004870937199
  2       0.020241939478
  3       0.003640632163
  4      -0.010920810812
  5       0.000000000001
  6      -0.000000000001
  7      -0.000000000000
  8       0.000000000001
  9      -0.000000000000
 10      -0.000000000000
 11      -0.000000000002
 12      -0.000000000000
 13       0.000000000000
 14       0.006122139020
 15      -0.000006895395
 16      -0.000121317878
 17       0.010536117754
 18      -0.001202180718
 19      -0.503124294074
 20       0.000566913727
 21       0.009971014431
 22      -0.865872890959
 23       0.098800066423
 24       0.000000000000
 25      -0.000000000000
 26      -0.000000000000
 27       0.000000000000
 28       0.000000000000
 29       0.000000000000
 30       0.000000000000
 Sym=     1a
 Ene= 1.90500980112269E+00
 Spin= Alpha
 Occup= 0.000000
  1       0.000000000041
  2       0.000000000055
  3      -0.000000000047
  4      -0.000000000022
  5      -0.070546564850
  6       0.011199633350
  7      -1.252649404004
  8       0.085189463587
  9      -0.013524274189
 10       1.512653831075
 11      -0.036741763722
 12       0.005832950334
 13      -0.652399576979
 14       0.000000000001
 15      -0.000000000002
 16      -0.000000000006
 17       0.000000000000
 18      -0.000000000002
 19      -0.000000000000
 20       0.000000000001
 21       0.000000000003
 22      -0.000000000000
 23       0.000000000001
 24      -0.002691643913
 25      -0.000058309024
 26       0.000072726778
 27      -0.003452469119
 28       0.000396152579
 29       0.000233849217
 30      -0.000065016444
 Sym=     1a
 Ene= 1.90500993196241E+00
 Spin= Alpha
 Occup= 0.000000
  1      -0.000000000024
  2      -0.000000000022
  3       0.000000000042
  4      -0.000000000008
  5      -1.250672616014
  6       0.070712693745
  7       0.071067461087
  8       1.510266628933
  9      -0.085390067117
 10      -0.085818473961
 11      -0.651369979700
 12       0.036828285381
 13       0.037013052357
 14       0.000000000022
 15      -0.000000000000
 16       0.000000000000
 17       0.000000000009
 18      -0.000000000042
 19      -0.000000000011
 20       0.000000000000
 21      -0.000000000000
 22      -0.000000000005
 23       0.000000000022
 24       0.000152714946
 25      -0.001097389294
 26       0.000058460140
 27       0.000200413228
 28       0.000017220141
 29       0.004195297394
 30      -0.000720690268
 Sym=     1a
 Ene= 1.93155924830130E+00
 Spin= Alpha
 Occup= 0.000000
  1      -0.000000000033
  2      -0.000000000007
  3       0.000000000063
  4      -0.000000000056
  5       0.071652442407
  6       1.260027103025
  7       0.007230284558
  8      -0.085187630720
  9      -1.498046909974
 10      -0.008596084885
 11       0.036557246422
 12       0.642868847124
 13       0.003688904316
 14      -0.000000000034
 15       0.000000000000
 16       0.000000000000
 17      -0.000000000017
 18       0.000000000058
 19       0.000000000018
 20      -0.000000000000
 21      -0.000000000000
 22       0.000000000009
 23      -0.000000000030
 24       0.000020917664
 25       0.000084837098
 26       0.001491774910
 27       0.000026843395
 28      -0.000003037922
 29      -0.000326886648
 30      -0.001900974324
 Sym=     1a
 Ene= 2.63404758892400E+00
 Spin= Alpha
 Occup= 0.000000
  1      -0.000000000001
  2      -0.000000000001
  3       0.000000000001
  4       0.000000000000
  5       0.000000001251
  6       0.000000028258
  7      -0.000000012069
  8      -0.000000001094
  9      -0.000000031759
 10       0.000000020054
 11      -0.000000000038
 12       0.000000011893
 13      -0.000000012093
 14      -0.000000000000
 15      -0.000000000004
 16      -0.000000000001
 17       0.000000000000
 18       0.000000000000
 19       0.000000000000
 20       0.000000000002
 21       0.000000000001
 22      -0.000000000000
 23      -0.000000000000
 24      -0.000108216240
 25      -0.009500698384
 26      -0.007509739480
 27      -0.113366853389
 28      -0.993435089729
 29       0.005858084014
 30      -0.007327396008
 Sym=     1a
 Ene= 2.63404775651398E+00
 Spin= Alpha
 Occup= 0.000000
  1      -0.000000000003
  2      -0.000000000004
  3       0.000000000003
  4       0.000000000001
  5       0.000000093169
  6      -0.000000240059
  7      -0.000000016385
  8      -0.000000105443
  9       0.000000280555
 10       0.000000019110
 11       0.000000049477
 12      -0.000000104097
 13      -0.000000008541
 14       0.000000000003
 15      -0.000000000000
 16      -0.000000000000
 17      -0.000000000002
 18      -0.000000000000
 19      -0.000000000002
 20       0.000000000000
 21       0.000000000000
 22       0.000000000001
 23       0.000000000000
 24       0.011098623330
 25       0.044787796469
 26       0.789158804273
 27       0.001697514837
 28      -0.010426839467
 29       0.103963970060
 30       0.603472574255
 Sym=     1a
 Ene= 2.63666340969704E+00
 Spin= Alpha
 Occup= 0.000000
  1      -0.000000000001
  2      -0.000000000001
  3       0.000000000001
  4       0.000000000000
  5      -0.000000099492
  6       0.000000064516
  7      -0.000000032747
  8       0.000000096292
  9      -0.000000084992
 10       0.000000032549
 11      -0.000000041727
 12       0.000000030816
 13      -0.000000013925
 14      -0.000000000001
 15      -0.000000000000
 16       0.000000000000
 17       0.000000000001
 18      -0.000000000001
 19       0.000000000001
 20       0.000000000000
 21      -0.000000000000
 22      -0.000000000000
 23       0.000000000000
 24       0.179537825934
 25      -0.941460461655
 26       0.052289906842
 27      -0.137400148393
 28       0.022554749529
 29      -0.240144613228
 30       0.040338332576
 Sym=     1a
 Ene= 2.63666341656714E+00
 Spin= Alpha
 Occup= 0.000000
  1      -0.000000000001
  2      -0.000000000001
  3       0.000000000001
  4       0.000000000000
  5       0.000000025934
  6      -0.000000007490
  7      -0.000000137907
  8      -0.000000025491
  9       0.000000009805
 10       0.000000137910
 11       0.000000010982
 12      -0.000000003561
 13      -0.000000058706
 14       0.000000000000
 15      -0.000000000001
 16       0.000000000001
 17      -0.000000000000
 18       0.000000000000
 19      -0.000000000000
 20       0.000000000001
 21      -0.000000000000
 22       0.000000000000
 23      -0.000000000000
 24       0.769887843332
 25       0.219224525546
 26      -0.017881683143
 27      -0.592699669478
 28       0.066018569231
 29       0.055253679655
 30      -0.013756551116
 Sym=     1a
 Ene= 2.63914817969038E+00
 Spin= Alpha
 Occup= 0.000000
  1       0.000000000003
  2       0.000000000004
  3      -0.000000000004
  4      -0.000000000001
  5      -0.000262145953
  6       0.000049492584
  7      -0.006014035643
  8       0.000251929019
  9      -0.000047613776
 10       0.005779707218
 11      -0.000106997608
 12       0.000020214524
 13      -0.002454706719
 14      -0.000000000000
 15       0.000000000000
 16      -0.000000000007
 17      -0.000000000000
 18      -0.000000000000
 19       0.000000000000
 20      -0.000000000000
 21       0.000000000004
 22       0.000000000000
 23       0.000000000000
 24       0.611645707407
 25       0.010073670450
 26      -0.016336356231
 27       0.784586723967
 28      -0.089908537502
 29      -0.040991325497
 30       0.012667829930
 Sym=     1a
 Ene= 2.63914863109381E+00
 Spin= Alpha
 Occup= 0.000000
  1       0.000000000000
  2       0.000000000000
  3      -0.000000000000
  4      -0.000000000000
  5       0.006004889021
  6      -0.000340107610
  7      -0.000264552323
  8      -0.005770866341
  9       0.000327017608
 10       0.000254243515
 11       0.002450941023
 12      -0.000138864503
 13      -0.000107979327
 14      -0.000000000000
 15       0.000000000000
 16      -0.000000000000
 17      -0.000000000000
 18       0.000000000007
 19       0.000000000000
 20      -0.000000000000
 21       0.000000000000
 22       0.000000000000
 23      -0.000000000004
 24       0.026902566333
 25      -0.249370310946
 26       0.013437699741
 27       0.035538460019
 28       0.005054387297
 29       0.953294218683
 30      -0.163802293188
 Sym=     1a
 Ene= 2.64543278526774E+00
 Spin= Alpha
 Occup= 0.000000
  1      -0.000000000004
  2      -0.000000000005
  3       0.000000000005
  4       0.000000000001
  5      -0.000300633945
  6      -0.005292490493
  7      -0.000030275089
  8      -0.000025098399
  9      -0.000435830795
 10      -0.000002593975
 11      -0.000009395861
 12      -0.000167479504
 13      -0.000000923380
 14       0.000000000005
 15       0.000000000000
 16      -0.000000000000
 17       0.000000000008
 18       0.000000000000
 19      -0.000000000003
 20      -0.000000000000
 21       0.000000000000
 22      -0.000000000004
 23      -0.000000000000
 24       0.008588703041
 25       0.034759865669
 26       0.611276299139
 27       0.011017902149
 28      -0.001255690310
 29      -0.134034865674
 30      -0.779063098385
 Sym=     1a
 Ene= 2.87930104380563E+00
 Spin= Alpha
 Occup= 0.000000
  1       0.000000007077
  2       0.000000012928
  3      -0.000000005180
  4      -0.000000004554
  5       0.000000000001
  6       0.000000000001
  7      -0.000000000002
  8      -0.000000000001
  9      -0.000000000001
 10       0.000000000003
 11       0.000000000000
 12       0.000000000001
 13      -0.000000000002
 14       0.036214639387
 15       1.177934119174
 16      -0.067212095691
 17      -0.021542890698
 18      -0.004344581394
 19      -0.019103279141
 20      -0.621362044926
 21       0.035454508857
 22       0.011363905006
 23       0.002291776783
 24       0.000000000001
 25       0.000000000000
 26      -0.000000000000
 27      -0.000000000001
 28      -0.000000000003
 29      -0.000000000000
 30      -0.000000000000
 Sym=     1a
 Ene= 2.87930108008078E+00
 Spin= Alpha
 Occup= 0.000000
  1      -0.000000057752
  2      -0.000000102314
  3       0.000000044160
  4       0.000000036470
  5      -0.000000000013
  6      -0.000000000017
  7      -0.000000000000
  8       0.000000000020
  9       0.000000000025
 10       0.000000000000
 11      -0.000000000010
 12      -0.000000000012
 13      -0.000000000000
 14      -1.021757851650
 15       0.042134908444
 16       0.004379056288
 17       0.586130328338
 18      -0.067144103582
 19       0.538978836668
 20      -0.022226228299
 21      -0.002309953145
 22      -0.309184621389
 23       0.035418580010
 24      -0.000000000000
 25       0.000000000001
 26       0.000000000003
 27       0.000000000000
 28      -0.000000000000
 29       0.000000000001
 30       0.000000000001
 Sym=     1a
 Ene= 2.89081892505948E+00
 Spin= Alpha
 Occup= 0.000000
  1       0.000000148063
  2       0.000000234834
  3      -0.000000131853
  4      -0.000000097454
  5      -0.000000000002
  6      -0.000000000002
  7      -0.000000000006
  8       0.000000000003
  9       0.000000000004
 10       0.000000000007
 11      -0.000000000001
 12      -0.000000000002
 13      -0.000000000003
 14       0.011698918928
 15       0.067264349483
 16       1.177110628647
 17       0.013403814256
 18       0.057960871535
 19      -0.006142380741
 20      -0.035316292287
 21      -0.618027434569
 22      -0.007037513761
 23      -0.030431640924
 24       0.000000000003
 25       0.000000000000
 26       0.000000000000
 27       0.000000000005
 28      -0.000000000001
 29      -0.000000000000
 30       0.000000000000
 Sym=     1a
 Ene= 2.89081988369466E+00
 Spin= Alpha
 Occup= 0.000000
  1      -0.000000394401
  2      -0.000000622961
  3       0.000000351653
  4       0.000000258058
  5       0.000000000043
  6       0.000000000052
  7      -0.000000000000
  8      -0.000000000062
  9      -0.000000000077
 10       0.000000000000
 11       0.000000000031
 12       0.000000000039
 13      -0.000000000000
 14       0.000619112777
 15      -0.003389479172
 16       0.059391637387
 17      -0.133324956446
 18      -1.171526837157
 19      -0.000325075962
 20       0.001779603493
 21      -0.031182843529
 22       0.070000654155
 23       0.615095649595
 24       0.000000000000
 25      -0.000000000001
 26       0.000000000000
 27       0.000000000000
 28      -0.000000000000
 29       0.000000000005
 30      -0.000000000002
 Sym=     1a
 Ene= 2.91030529839472E+00
 Spin= Alpha
 Occup= 0.000000
  1       0.036979781593
  2       0.055560443605
  3      -0.035055838174
  4      -0.024152710014
  5      -0.000000000025
  6      -0.000000000037
  7       0.000000000001
  8       0.000000000037
  9       0.000000000052
 10      -0.000000000001
 11      -0.000000000020
 12      -0.000000000027
 13       0.000000000001
 14      -0.590145348248
 15       0.000663376180
 16       0.011687284282
 17      -1.015619529924
 18       0.115860714295
 19       0.308583002633
 20      -0.000346871554
 21      -0.006111193645
 22       0.531060516831
 23      -0.060582752543
 24       0.000000000000
 25       0.000000000001
 26       0.000000000005
 27      -0.000000000000
 28      -0.000000000000
 29      -0.000000000002
 30      -0.000000000006
 Sym=     1a
 Ene= 3.69324238836780E+00
 Spin= Alpha
 Occup= 0.000000
  1      -2.254186575054
  2      -2.989181285937
  3       2.443726120822
  4       1.252104141006
  5       0.000000000011
  6      -0.000000000038
  7      -0.000000000022
  8      -0.000000000044
  9      -0.000000000010
 10       0.000000000041
 11       0.000000000068
 12       0.000000000076
 13      -0.000000000035
 14      -0.009028130960
 15       0.000010155182
 16       0.000178854706
 17      -0.015537128550
 18       0.001772649701
 19       0.004546554849
 20      -0.000005114555
 21      -0.000090072726
 22       0.007824482694
 23      -0.000892709951
 24       0.000000000000
 25       0.000000000000
 26      -0.000000000002
 27       0.000000000001
 28       0.000000000000
 29       0.000000000000
 30       0.000000000001
 Sym=     1a
 Ene= -1.02743286654038E+01
 Spin=Beta
 Occup= 1.000000
  1      -0.973145634351
  2       0.002956186920
  3      -0.048730186552
  4      -0.002301105518
  5       0.000000000000
  6      -0.000000000000
  7       0.000000000000
  8      -0.000000000003
  9       0.000000000001
 10      -0.000000000002
 11       0.000000000004
 12      -0.000000000002
 13       0.000000000003
 14       0.000338227804
 15      -0.000000381199
 16      -0.000006703480
 17       0.000582088582
 18      -0.000066420283
 19      -0.000109368596
 20       0.000000123263
 21       0.000002167620
 22      -0.000188222867
 23       0.000021477512
 24      -0.000000000000
 25       0.000000000000
 26       0.000000000000
 27      -0.000000000000
 28      -0.000000000000
 29      -0.000000000000
 30      -0.000000000000
 Sym=     1a
 Ene= -4.74958656874988E-01
 Spin=Beta
 Occup= 1.000000
  1       0.026168435869
  2      -0.528412386772
  3      -0.148799411488
  4      -0.436990293347
  5       0.000000000001
  6       0.000000000028
  7       0.000000000001
  8      -0.000000000004
  9       0.000000000002
 10       0.000000000002
 11      -0.000000000000
 12       0.000000000014
 13       0.000000000001
 14       0.005415375137
 15      -0.000006103515
 16      -0.000107330095
 17       0.009319838500
 18      -0.001063458284
 19       0.010327014696
 20      -0.000011639800
 21      -0.000204677465
 22       0.017772758343
 23      -0.002027998366
 24      -0.000000000000
 25      -0.000000000000
 26      -0.000000000000
 27      -0.000000000000
 28      -0.000000000000
 29      -0.000000000000
 30       0.000000000000
 Sym=     1a
 Ene= -1.21549055226289E-01
 Spin=Beta
 Occup= 0.000000
  1      -0.000000000025
  2      -0.000000000089
  3      -0.000000000011
  4       0.000000000065
  5      -0.018919932177
  6      -0.332693451883
  7      -0.001909503830
  8      -0.022998882654
  9      -0.404418846756
 10      -0.002321174432
 11      -0.027113436100
 12      -0.476770268552
 13      -0.002736438501
 14       0.000000000001
 15      -0.000000000000
 16       0.000000000000
 17       0.000000000001
 18      -0.000000000003
 19      -0.000000000002
 20       0.000000000000
 21       0.000000000000
 22      -0.000000000002
 23       0.000000000002
 24       0.000094953376
 25       0.000384048739
 26       0.006753217611
 27       0.000121796626
 28      -0.000013897736
 29      -0.001481215099
 30      -0.008607075217
 Sym=     1a
 Ene= -7.46112699234844E-02
 Spin=Beta
 Occup= 0.000000
  1      -0.000000000020
  2      -0.000000000036
  3       0.000000000017
  4       0.000000000019
  5       0.319373728335
  6      -0.018069824357
  7      -0.016139374039
  8       0.361956836976
  9      -0.020479129934
 10      -0.018291287771
 11       0.532945346210
 12      -0.030153472805
 13      -0.026932097093
 14      -0.000000000001
 15      -0.000000000000
 16       0.000000000000
 17      -0.000000000001
 18       0.000000000001
 19       0.000000000001
 20      -0.000000000000
 21       0.000000000000
 22       0.000000000001
 23      -0.000000000002
 24       0.000267941550
 25      -0.002164952033
 26       0.000116211449
 27       0.000352612368
 28       0.000038858238
 29       0.008276704120
 30      -0.001421896198
 Sym=     1a
 Ene= -7.46112642068616E-02
 Spin=Beta
 Occup= 0.000000
  1       0.000000000010
  2       0.000000000017
  3      -0.000000000009
  4      -0.000000000013
  5      -0.016009530848
  6       0.002746403125
  7      -0.319879232738
  8      -0.018144132187
  9       0.003112589171
 10      -0.362529740864
 11      -0.026715426840
 12       0.004582976018
 13      -0.533788920610
 14       0.000000000000
 15      -0.000000000000
 16       0.000000000001
 17       0.000000000000
 18      -0.000000000000
 19       0.000000000000
 20      -0.000000000000
 21       0.000000000001
 22       0.000000000000
 23       0.000000000000
 24       0.005310547914
 25       0.000101452150
 26      -0.000142663552