
                                 *****************
                                 * O   R   C   A *
                                 *****************

                                            #,
                                            ###
                                            ####
                                            #####
                                            ######
                                           ########,
                                     ,,################,,,,,
                               ,,#################################,,
                          ,,##########################################,,
                       ,#########################################, ''#####,
                    ,#############################################,,   '####,
                  ,##################################################,,,,####,
                ,###########''''           ''''###############################
              ,#####''   ,,,,##########,,,,          '''####'''          '####
            ,##' ,,,,###########################,,,                        '##
           ' ,,###''''                  '''############,,,
         ,,##''                                '''############,,,,        ,,,,,,###''
      ,#''                                            '''#######################'''
     '                                                          ''''####''''
             ,#######,   #######,   ,#######,      ##
            ,#'     '#,  ##    ##  ,#'     '#,    #''#        ######   ,####,
            ##       ##  ##   ,#'  ##            #'  '#       #        #'  '#
            ##       ##  #######   ##           ,######,      #####,   #    #
            '#,     ,#'  ##    ##  '#,     ,#' ,#      #,         ##   #,  ,#
             '#######'   ##     ##  '#######'  #'      '#     #####' # '####'



                  #######################################################
                  #                        -***-                        #
                  #          Department of theory and spectroscopy      #
                  #    Directorship and core code : Frank Neese         #
                  #        Max Planck Institute fuer Kohlenforschung    #
                  #                Kaiser Wilhelm Platz 1               #
                  #                 D-45470 Muelheim/Ruhr               #
                  #                      Germany                        #
                  #                                                     #
                  #                  All rights reserved                #
                  #                        -***-                        #
                  #######################################################


                         Program Version 5.0.4 -  RELEASE  -


 With contributions from (in alphabetic order):
   Daniel Aravena         : Magnetic Suceptibility
   Michael Atanasov       : Ab Initio Ligand Field Theory (pilot matlab implementation)
   Alexander A. Auer      : GIAO ZORA, VPT2 properties, NMR spectrum
   Ute Becker             : Parallelization
   Giovanni Bistoni       : ED, misc. LED, open-shell LED, HFLD
   Martin Brehm           : Molecular dynamics
   Dmytro Bykov           : SCF Hessian
   Vijay G. Chilkuri      : MRCI spin determinant printing, contributions to CSF-ICE
   Dipayan Datta          : RHF DLPNO-CCSD density
   Achintya Kumar Dutta   : EOM-CC, STEOM-CC
   Dmitry Ganyushin       : Spin-Orbit,Spin-Spin,Magnetic field MRCI
   Miquel Garcia          : C-PCM and meta-GGA Hessian, CC/C-PCM, Gaussian charge scheme
   Yang Guo               : DLPNO-NEVPT2, F12-NEVPT2, CIM, IAO-localization
   Andreas Hansen         : Spin unrestricted coupled pair/coupled cluster methods
   Benjamin Helmich-Paris : MC-RPA, TRAH-SCF, COSX integrals
   Lee Huntington         : MR-EOM, pCC
   Robert Izsak           : Overlap fitted RIJCOSX, COSX-SCS-MP3, EOM
   Marcus Kettner         : VPT2
   Christian Kollmar      : KDIIS, OOCD, Brueckner-CCSD(T), CCSD density, CASPT2, CASPT2-K
   Simone Kossmann        : Meta GGA functionals, TD-DFT gradient, OOMP2, MP2 Hessian
   Martin Krupicka        : Initial AUTO-CI
   Lucas Lang             : DCDCAS
   Marvin Lechner         : AUTO-CI (C++ implementation), FIC-MRCC
   Dagmar Lenk            : GEPOL surface, SMD
   Dimitrios Liakos       : Extrapolation schemes; Compound Job, initial MDCI parallelization
   Dimitrios Manganas     : Further ROCIS development; embedding schemes
   Dimitrios Pantazis     : SARC Basis sets
   Anastasios Papadopoulos: AUTO-CI, single reference methods and gradients
   Taras Petrenko         : DFT Hessian,TD-DFT gradient, ASA, ECA, R-Raman, ABS, FL, XAS/XES, NRVS
   Peter Pinski           : DLPNO-MP2, DLPNO-MP2 Gradient
   Christoph Reimann      : Effective Core Potentials
   Marius Retegan         : Local ZFS, SOC
   Christoph Riplinger    : Optimizer, TS searches, QM/MM, DLPNO-CCSD(T), (RO)-DLPNO pert. Triples
   Tobias Risthaus        : Range-separated hybrids, TD-DFT gradient, RPA, STAB
   Michael Roemelt        : Original ROCIS implementation
   Masaaki Saitow         : Open-shell DLPNO-CCSD energy and density
   Barbara Sandhoefer     : DKH picture change effects
   Avijit Sen             : IP-ROCIS
   Kantharuban Sivalingam : CASSCF convergence, NEVPT2, FIC-MRCI
   Bernardo de Souza      : ESD, SOC TD-DFT
   Georgi Stoychev        : AutoAux, RI-MP2 NMR, DLPNO-MP2 response
   Willem Van den Heuvel  : Paramagnetic NMR
   Boris Wezisla          : Elementary symmetry handling
   Frank Wennmohs         : Technical directorship


 We gratefully acknowledge several colleagues who have allowed us to
 interface, adapt or use parts of their codes:
   Stefan Grimme, W. Hujo, H. Kruse, P. Pracht,  : VdW corrections, initial TS optimization,
                  C. Bannwarth, S. Ehlert          DFT functionals, gCP, sTDA/sTD-DF
   Ed Valeev, F. Pavosevic, A. Kumar             : LibInt (2-el integral package), F12 methods
   Garnet Chan, S. Sharma, J. Yang, R. Olivares  : DMRG
   Ulf Ekstrom                                   : XCFun DFT Library
   Mihaly Kallay                                 : mrcc  (arbitrary order and MRCC methods)
   Jiri Pittner, Ondrej Demel                    : Mk-CCSD
   Frank Weinhold                                : gennbo (NPA and NBO analysis)
   Christopher J. Cramer and Donald G. Truhlar   : smd solvation model
   Lars Goerigk                                  : TD-DFT with DH, B97 family of functionals
   V. Asgeirsson, H. Jonsson                     : NEB implementation
   FAccTs GmbH                                   : IRC, NEB, NEB-TS, DLPNO-Multilevel, CI-OPT
                                                   MM, QMMM, 2- and 3-layer-ONIOM, Crystal-QMMM,
                                                   LR-CPCM, SF, NACMEs, symmetry and pop. for TD-DFT,
                                                   nearIR, NL-DFT gradient (VV10), updates on ESD,
                                                   ML-optimized integration grids
   S Lehtola, MJT Oliveira, MAL Marques          : LibXC Library
   Liviu Ungur et al                             : ANISO software


 Your calculation uses the libint2 library for the computation of 2-el integrals
 For citations please refer to: http://libint.valeyev.net

 Your ORCA version has been built with support for libXC version: 5.1.0
 For citations please refer to: https://tddft.org/programs/libxc/

 This ORCA versions uses:
   CBLAS   interface :  Fast vector & matrix operations
   LAPACKE interface :  Fast linear algebra routines
   SCALAPACK package :  Parallel linear algebra routines
   Shared memory     :  Shared parallel matrices
   BLAS/LAPACK       :  OpenBLAS 0.3.15  USE64BITINT DYNAMIC_ARCH NO_AFFINITY Prescott SINGLE_THREADED
        Core in use  :  Prescott
   Copyright (c) 2011-2014, The OpenBLAS Project




***************************************
The coordinates will be read from file: s.xyz
***************************************


================================================================================

----- Orbital basis set information -----
Your calculation utilizes the basis: cc-pVTZ
       H, B-Ne : Obtained from the ccRepo (grant-hill.group.shef.ac.uk/ccrepo) Feb. 2017
                 T. H. Dunning, Jr., J. Chem. Phys. 90, 1007 (1989)
            He : Obtained from the ccRepo (grant-hill.group.shef.ac.uk/ccrepo) Feb. 2017
                 D. E. Woon, T. H. Dunning, Jr., J. Chem. Phys. 100, 2975 (1994)
  Li-Be, Na-Mg : Obtained from the ccRepo (grant-hill.group.shef.ac.uk/ccrepo) Feb. 2017
                 B. P. Prascher, D. E. Woon, K. A. Peterson, T. H. Dunning, Jr., A. K. Wilson, Theor. Chem. Acc. 128, 69 (2011)
         Al-Ar : Obtained from the ccRepo (grant-hill.group.shef.ac.uk/ccrepo) Feb. 2017
                 D. E. Woon, T. H. Dunning, Jr., J. Chem. Phys. 98, 1358 (1993)
            Ca : Obtained from the Peterson Research Group Website (tyr0.chem.wsu.edu/~kipeters) Feb. 2017
                 J. Koput, K. A. Peterson, J. Phys. Chem. 106, 9595 (2002)
         Sc-Zn : Obtained from the ccRepo (grant-hill.group.shef.ac.uk/ccrepo) Feb. 2017
                 N. B. Balabanov, K. A. Peterson, J. Chem. Phys. 123, 064107 (2005)
                 N. B. Balabanov, K. A. Peterson, J. Chem. Phys. 125, 074110 (2006)
         Ga-Kr : Obtained from the ccRepo (grant-hill.group.shef.ac.uk/ccrepo) Feb. 2017
                 A. K. Wilson, D. E. Woon, K. A. Peterson, T. H. Dunning, Jr., J. Chem. Phys. 110, 7667 (1999)
             Y : Obtained from the ccRepo (grant-hill.group.shef.ac.uk/ccrepo) Feb. 2017
                 K. A. Peterson, D. Figgen, M. Dolg, H. Stoll, J. Chem. Phys. 126, 124101 (2007)
        Ag, Au : Obtained from the Peterson Research Group Website (tyr0.chem.wsu.edu/~kipeters) Feb. 2017
                 K. A. Peterson, C. Puzzarini, Theor. Chem. Acc. 114, 283 (2005)

----- AuxJ basis set information -----
Your calculation utilizes the auxiliary basis: def2/J
   F. Weigend, Phys. Chem. Chem. Phys. 8, 1057 (2006).

================================================================================
                                        WARNINGS
                       Please study these warnings very carefully!
================================================================================


INFO   : the flag for use of the SHARK integral package has been found!

================================================================================
                                       INPUT FILE
================================================================================
NAME = orca.inp
|  1> !uks  b3lyp cc-pvtz TightSCF NoFrozenCore KeepDens
|  2> %MaxCore 1024
|  3> %pal
|  4> nprocs 8
|  5> end
|  6> %elprop
|  7> Polar 1
|  8> dipole true
|  9> quadrupole true
| 10> end
| 11>
| 12> * xyzfile 0 3 s.xyz
| 13>
| 14>
| 15>                          ****END OF INPUT****
================================================================================

                       ****************************
                       * Single Point Calculation *
                       ****************************

---------------------------------
CARTESIAN COORDINATES (ANGSTROEM)
---------------------------------
  S     27.407000    1.273000   27.856001

----------------------------
CARTESIAN COORDINATES (A.U.)
----------------------------
  NO LB      ZA    FRAG     MASS         X           Y           Z
   0 S    16.0000    0    32.060   51.791724    2.405621   52.640213

--------------------------------
INTERNAL COORDINATES (ANGSTROEM)
--------------------------------
 S      0   0   0     0.000000000000     0.00000000     0.00000000

---------------------------
INTERNAL COORDINATES (A.U.)
---------------------------
 S      0   0   0     0.000000000000     0.00000000     0.00000000

---------------------
BASIS SET INFORMATION
---------------------
There are 1 groups of distinct atoms

 Group   1 Type S   : 41s16p2d1f contracted to 5s4p2d1f pattern {13131311/7711/11/1}

Atom   0S    basis set group =>   1
---------------------------------
AUXILIARY/J BASIS SET INFORMATION
---------------------------------
There are 1 groups of distinct atoms

 Group   1 Type S   : 14s5p5d2f1g contracted to 8s4p3d1f1g pattern {71111111/2111/311/2/1}

Atom   0S    basis set group =>   1


           ************************************************************
           *        Program running with 8 parallel MPI-processes     *
           *              working on a common directory               *
           ************************************************************
------------------------------------------------------------------------------
                           ORCA GTO INTEGRAL CALCULATION
                           -- RI-GTO INTEGRALS CHOSEN --
------------------------------------------------------------------------------
------------------------------------------------------------------------------
                   ___
                  /   \      - P O W E R E D   B Y -
                 /     \
                 |  |  |   _    _      __       _____    __    __
                 |  |  |  | |  | |    /  \     |  _  \  |  |  /  |
                  \  \/   | |  | |   /    \    | | | |  |  | /  /
                 / \  \   | |__| |  /  /\  \   | |_| |  |  |/  /
                |  |  |   |  __  | /  /__\  \  |    /   |      \
                |  |  |   | |  | | |   __   |  |    \   |  |\   \
                \     /   | |  | | |  |  |  |  | |\  \  |  | \   \
                 \___/    |_|  |_| |__|  |__|  |_| \__\ |__|  \__/

                      - O R C A' S   B I G   F R I E N D -
                                      &
                       - I N T E G R A L  F E E D E R -

 v1 FN, 2020, v2 2021
------------------------------------------------------------------------------


Reading SHARK input file orca.SHARKINP.tmp ... ok
----------------------
SHARK INTEGRAL PACKAGE
----------------------

Number of atoms                             ...      1
Number of basis functions                   ...     59
Number of shells                            ...     27
Maximum angular momentum                    ...      3
Integral batch strategy                     ... SHARK/LIBINT Hybrid
RI-J (if used) integral strategy            ... SPLIT-RIJ (Revised 2003 algorithm where possible)
Printlevel                                  ...      1
Contraction scheme used                     ... PARTIAL GENERAL contraction
Coulomb Range Separation                    ... NOT USED
Exchange Range Separation                   ... NOT USED
Finite Nucleus Model                        ... NOT USED
Auxiliary Coulomb fitting basis             ... AVAILABLE
   # of basis functions in Aux-J            ...     51
   # of shells in Aux-J                     ...     17
   Maximum angular momentum in Aux-J        ...      4
Auxiliary J/K fitting basis                 ... NOT available
Auxiliary Correlation fitting basis         ... NOT available
Auxiliary 'external' fitting basis          ... NOT available
Integral threshold                          ...     2.500000e-11
Primitive cut-off                           ...     2.500000e-12
Primitive pair pre-selection threshold      ...     2.500000e-12

Calculating pre-screening integrals         ... done (  0.0 sec) Dimension = 27
Calculating pre-screening integrals (ORCA)  ... done (  0.1 sec) Dimension = 12
Organizing shell pair data                  ... done (  0.0 sec)
Shell pair information
Total number of shell pairs                 ...       378
Shell pairs after pre-screening             ...       377
Total number of primitive shell pairs       ...       378
Primitive shell pairs kept                  ...       377
          la=0 lb=0:    120 shell pairs
          la=1 lb=0:    135 shell pairs
          la=1 lb=1:     45 shell pairs
          la=2 lb=0:     30 shell pairs
          la=2 lb=1:     18 shell pairs
          la=2 lb=2:      3 shell pairs
          la=3 lb=0:     14 shell pairs
          la=3 lb=1:      9 shell pairs
          la=3 lb=2:      2 shell pairs
          la=3 lb=3:      1 shell pairs

Calculating one electron integrals          ... done (  0.0 sec)
Calculating RI/J V-Matrix + Cholesky decomp.... done (  0.0 sec)
Calculating Nuclear repulsion               ... done (  0.0 sec) ENN=      0.000000000000 Eh

SHARK setup successfully completed in   0.2 seconds

Maximum memory used throughout the entire GTOINT-calculation: 48.0 MB


           ************************************************************
           *        Program running with 8 parallel MPI-processes     *
           *              working on a common directory               *
           ************************************************************
-------------------------------------------------------------------------------
                                 ORCA SCF
-------------------------------------------------------------------------------

------------
SCF SETTINGS
------------
Hamiltonian:
 Density Functional     Method          .... DFT(GTOs)
 Exchange Functional    Exchange        .... B88
   X-Alpha parameter    XAlpha          ....  0.666667
   Becke's b parameter  XBeta           ....  0.004200
 Correlation Functional Correlation     .... LYP
 LDA part of GGA corr.  LDAOpt          .... VWN-5
 Gradients option       PostSCFGGA      .... off
 Hybrid DFT is turned on
   Fraction HF Exchange ScalHFX         ....  0.200000
   Scaling of DF-GGA-X  ScalDFX         ....  0.720000
   Scaling of DF-GGA-C  ScalDFC         ....  0.810000
   Scaling of DF-LDA-C  ScalLDAC        ....  1.000000
   Perturbative correction              ....  0.000000
   Density functional embedding theory  .... OFF
   NL short-range parameter             ....  4.800000
 RI-approximation to the Coulomb term is turned on
   Number of AuxJ basis functions       .... 51
   RIJ-COSX (HFX calculated with COS-X)).... on


General Settings:
 Integral files         IntName         .... orca
 Hartree-Fock type      HFTyp           .... UHF
 Total Charge           Charge          ....    0
 Multiplicity           Mult            ....    3
 Number of Electrons    NEL             ....   16
 Basis Dimension        Dim             ....   34
 Nuclear Repulsion      ENuc            ....      0.0000000000 Eh

Convergence Acceleration:
 DIIS                   CNVDIIS         .... on
   Start iteration      DIISMaxIt       ....    12
   Startup error        DIISStart       ....  0.200000
   # of expansion vecs  DIISMaxEq       ....     5
   Bias factor          DIISBfac        ....   1.050
   Max. coefficient     DIISMaxC        ....  10.000
 Trust-Rad. Augm. Hess. CNVTRAH         .... auto
   Auto Start mean grad. ratio tolernc. ....  1.125000
   Auto Start start iteration           ....    20
   Auto Start num. interpolation iter.  ....    10
   Max. Number of Micro iterations      ....    16
   Max. Number of Macro iterations      .... Maxiter - #DIIS iter
   Number of Davidson start vectors     ....     2
   Converg. threshold I  (grad. norm)   ....   1.000e-05
   Converg. threshold II (energy diff.) ....   1.000e-08
   Grad. Scal. Fac. for Micro threshold ....   0.100
   Minimum threshold for Micro iter.    ....   0.010
   NR start threshold (gradient norm)   ....   0.001
   Initial trust radius                 ....   0.400
   Minimum AH scaling param. (alpha)    ....   1.000
   Maximum AH scaling param. (alpha)    .... 1000.000
   Orbital update algorithm             .... Taylor
   White noise on init. David. guess    .... on
   Maximum white noise                  ....   0.010
   Quad. conv. algorithm                .... NR
 SOSCF                  CNVSOSCF        .... off
 Level Shifting         CNVShift        .... on
   Level shift para.    LevelShift      ....    0.2500
   Turn off err/grad.   ShiftErr        ....    0.0010
 Zerner damping         CNVZerner       .... off
 Static damping         CNVDamp         .... on
   Fraction old density DampFac         ....    0.7000
   Max. Damping (<1)    DampMax         ....    0.9800
   Min. Damping (>=0)   DampMin         ....    0.0000
   Turn off err/grad.   DampErr         ....    0.1000
 Fernandez-Rico         CNVRico         .... off

SCF Procedure:
 Maximum # iterations   MaxIter         ....   125
 SCF integral mode      SCFMode         .... Direct
   Integral package                     .... SHARK and LIBINT hybrid scheme
 Reset frequency        DirectResetFreq ....    20
 Integral Threshold     Thresh          ....  2.500e-11 Eh
 Primitive CutOff       TCut            ....  2.500e-12 Eh

Convergence Tolerance:
 Convergence Check Mode ConvCheckMode   .... Total+1el-Energy
 Convergence forced     ConvForced      .... 0
 Energy Change          TolE            ....  1.000e-08 Eh
 1-El. energy change                    ....  1.000e-05 Eh
 DIIS Error             TolErr          ....  5.000e-07


Diagonalization of the overlap matrix:
Smallest eigenvalue                        ... 1.965e-02
Time for diagonalization                   ...    0.000 sec
Threshold for overlap eigenvalues          ... 1.000e-08
Number of eigenvalues below threshold      ... 0
Time for construction of square roots      ...    0.000 sec
Total time needed                          ...    0.001 sec

Time for model grid setup =    0.006 sec

------------------------------
INITIAL GUESS: MODEL POTENTIAL
------------------------------
Loading Hartree-Fock densities                     ... done
Calculating cut-offs                               ... done
Initializing the effective Hamiltonian             ... done
Setting up the integral package (SHARK)            ... done
Starting the Coulomb interaction                   ... done (   0.0 sec)
Reading the grid                                   ... done
Mapping shells                                     ... done
Starting the XC term evaluation                    ... done (   0.0 sec)
  promolecular density results
     # of electrons  =     16.000000577
     EX              =    -24.938234041
     EC              =     -0.644220977
     EX+EC           =    -25.582455018
Transforming the Hamiltonian                       ... done (   0.0 sec)
Diagonalizing the Hamiltonian                      ... done (   0.0 sec)
Back transforming the eigenvectors                 ... done (   0.0 sec)
Now organizing SCF variables                       ... done
                      ------------------
                      INITIAL GUESS DONE (   0.0 sec)
                      ------------------
-------------------
DFT GRID GENERATION
-------------------

General Integration Accuracy     IntAcc      ... 4.388
Radial Grid Type                 RadialGrid  ... OptM3 with GC (2021)
Angular Grid (max. ang.)         AngularGrid ... 4 (Lebedev-302)
Angular grid pruning method      GridPruning ... 4 (adaptive)
Weight generation scheme         WeightScheme... Becke
Basis function cutoff            BFCut       ... 1.0000e-11
Integration weight cutoff        WCut        ... 1.0000e-14
Angular grids for H and He will be reduced by one unit
Partially contracted basis set               ... off
Rotationally invariant grid construction     ... off

Total number of grid points                  ...     7368
Total number of batches                      ...      116
Average number of points per batch           ...       63
Average number of grid points per atom       ...     7368
Time for grid setup =    0.045 sec

--------------------
COSX GRID GENERATION
--------------------

GRIDX 1
-------
General Integration Accuracy     IntAcc      ... 3.816
Radial Grid Type                 RadialGrid  ... OptM3 with GC (2021)
Angular Grid (max. ang.)         AngularGrid ... 1 (Lebedev-50)
Angular grid pruning method      GridPruning ... 4 (adaptive)
Weight generation scheme         WeightScheme... Becke
Basis function cutoff            BFCut       ... 1.0000e-11
Integration weight cutoff        WCut        ... 1.0000e-14
Angular grids for H and He will be reduced by one unit
Partially contracted basis set               ... on
Rotationally invariant grid construction     ... off

Total number of grid points                  ...      840
Total number of batches                      ...       14
Average number of points per batch           ...       60
Average number of grid points per atom       ...      840
UseSFitting                                  ... on

GRIDX 2
-------
General Integration Accuracy     IntAcc      ... 4.020
Radial Grid Type                 RadialGrid  ... OptM3 with GC (2021)
Angular Grid (max. ang.)         AngularGrid ... 2 (Lebedev-110)
Angular grid pruning method      GridPruning ... 4 (adaptive)
Weight generation scheme         WeightScheme... Becke
Basis function cutoff            BFCut       ... 1.0000e-11
Integration weight cutoff        WCut        ... 1.0000e-14
Angular grids for H and He will be reduced by one unit
Partially contracted basis set               ... on
Rotationally invariant grid construction     ... off

Total number of grid points                  ...     1978
Total number of batches                      ...       31
Average number of points per batch           ...       63
Average number of grid points per atom       ...     1978
UseSFitting                                  ... on

GRIDX 3
-------
General Integration Accuracy     IntAcc      ... 4.338
Radial Grid Type                 RadialGrid  ... OptM3 with GC (2021)
Angular Grid (max. ang.)         AngularGrid ... 3 (Lebedev-194)
Angular grid pruning method      GridPruning ... 4 (adaptive)
Weight generation scheme         WeightScheme... Becke
Basis function cutoff            BFCut       ... 1.0000e-11
Integration weight cutoff        WCut        ... 1.0000e-14
Angular grids for H and He will be reduced by one unit
Partially contracted basis set               ... on
Rotationally invariant grid construction     ... off

Total number of grid points                  ...     5032
Total number of batches                      ...       79
Average number of points per batch           ...       63
Average number of grid points per atom       ...     5032
UseSFitting                                  ... on

Time for X-Grid setup             =    0.029 sec

 re-compute Schwartz prescreening matrix in partically contracted basis (1) ...done (   0.049 sec)
--------------
SCF ITERATIONS
--------------
ITER       Energy         Delta-E        Max-DP      RMS-DP      [F,P]     Damp
               ***  Starting incremental Fock matrix formation  ***
  0   -398.0734812742   0.000000000000 0.00839848  0.00046398  0.0305208 0.7000
  1   -398.0745853890  -0.001104114817 0.00818129  0.00042224  0.0229693 0.7000
                               ***Turning on DIIS***
  2   -398.0754191137  -0.000833724663 0.02194059  0.00110389  0.0165986 0.0000
  3   -398.0774921026  -0.002072988903 0.00291668  0.00014985  0.0029673 0.0000
  4   -398.0775594936  -0.000067391020 0.00166939  0.00008590  0.0007433 0.0000
               *** Restarting incremental Fock matrix formation ***
                                   *** Resetting DIIS ***
  5   -398.0776728046  -0.000113311034 0.00239377  0.00008989  0.0071150 0.0000
  6   -398.0777661004  -0.000093295801 0.00077391  0.00003432  0.0018554 0.0000
  7   -398.0777751010  -0.000009000605 0.00033418  0.00001562  0.0004781 0.0000
  8   -398.0777757372  -0.000000636200 0.00006715  0.00000289  0.0000321 0.0000
  9   -398.0777757426  -0.000000005351 0.00001982  0.00000094  0.0000148 0.0000
 10   -398.0777757419   0.000000000719 0.00000452  0.00000017  0.0000023 0.0000
                 **** Energy Check signals convergence ****

               *****************************************************
               *                     SUCCESS                       *
               *           SCF CONVERGED AFTER  11 CYCLES          *
               *****************************************************

Old exchange energy                            =     -4.998870461 Eh
New exchange energy                            =     -4.998870398 Eh
Exchange energy change after final integration =      0.000000063 Eh
Total energy after final integration           =   -398.077775682 Eh
Final COS-X integration done in                =     0.030 sec

----------------
TOTAL SCF ENERGY
----------------

Total Energy       :         -398.07777568 Eh          -10832.24698 eV

Components:
Nuclear Repulsion  :            0.00000000 Eh               0.00000 eV
Electronic Energy  :         -398.07777568 Eh          -10832.24698 eV
One Electron Energy:         -549.44813856 Eh          -14951.24396 eV
Two Electron Energy:          151.37036288 Eh            4118.99698 eV
Max COSX asymmetry :            0.00000004 Eh               0.00000 eV

Virial components:
Potential Energy   :         -795.07838675 Eh          -21635.18281 eV
Kinetic Energy     :          397.00061107 Eh           10802.93584 eV
Virial Ratio       :            2.00271326


DFT components:
N(Alpha)           :        8.999999863195 electrons
N(Beta)            :        6.999999936809 electrons
N(Total)           :       15.999999800004 electrons
E(X)               :      -19.827648107853 Eh
E(C)               :       -0.742788320435 Eh
E(XC)              :      -20.570436428287 Eh
DFET-embed. en.    :        0.000000000000 Eh

---------------
SCF CONVERGENCE
---------------

  Last Energy change         ...   -3.3571e-09  Tolerance :   1.0000e-08
  Last MAX-Density change    ...    0.0000e+00  Tolerance :   1.0000e-07
  Last RMS-Density change    ...    0.0000e+00  Tolerance :   5.0000e-09
  Last DIIS Error            ...    3.1714e-07  Tolerance :   5.0000e-07

             **** THE GBW FILE WAS UPDATED (orca.gbw) ****
             **** DENSITY orca.scfp WAS UPDATED ****
             **** ENERGY FILE WAS UPDATED (orca.en.tmp) ****
----------------------
UHF SPIN CONTAMINATION
----------------------

Warning: in a DFT calculation there is little theoretical justification to
         calculate <S**2> as in Hartree-Fock theory. We will do it anyways
         but you should keep in mind that the values have only limited relevance

Expectation value of <S**2>     :     2.003677
Ideal value S*(S+1) for S=1.0   :     2.000000
Deviation                       :     0.003677

             **** THE GBW FILE WAS UPDATED (orca.gbw) ****
             **** DENSITY orca.scfp WAS UPDATED ****
----------------
ORBITAL ENERGIES
----------------
                 SPIN UP ORBITALS
  NO   OCC          E(Eh)            E(eV)
   0   1.0000     -88.944651     -2420.3070
   1   1.0000      -7.991989      -217.4731
   2   1.0000      -5.961416      -162.2184
   3   1.0000      -5.961416      -162.2184
   4   1.0000      -5.942857      -161.7134
   5   1.0000      -0.722219       -19.6526
   6   1.0000      -0.331668        -9.0251
   7   1.0000      -0.331668        -9.0251
   8   1.0000      -0.284176        -7.7328
   9   0.0000       0.270206         7.3527
  10   0.0000       0.270206         7.3527
  11   0.0000       0.291381         7.9289
  12   0.0000       0.304377         8.2825
  13   0.0000       0.304377         8.2825
  14   0.0000       0.308814         8.4033
  15   0.0000       0.335547         9.1307
  16   0.0000       0.335547         9.1307
  17   0.0000       0.347470         9.4551
  18   0.0000       1.453470        39.5509
  19   0.0000       1.453470        39.5509
  20   0.0000       1.484906        40.4064
  21   0.0000       1.484906        40.4064
  22   0.0000       1.496223        40.7143
  23   0.0000       1.575202        42.8634
  24   0.0000       1.575202        42.8634
  25   0.0000       1.603614        43.6366
  26   0.0000       1.603618        43.6367
  27   0.0000       1.620924        44.1076
  28   0.0000       1.620924        44.1076
  29   0.0000       1.627036        44.2739
  30   0.0000       1.863208        50.7005
  31   0.0000       1.863208        50.7005
  32   0.0000       1.901161        51.7332
  33   0.0000       3.242282        88.2270

                 SPIN DOWN ORBITALS
  NO   OCC          E(Eh)            E(eV)
   0   1.0000     -88.933703     -2420.0091
   1   1.0000      -7.980981      -217.1735
   2   1.0000      -5.939697      -161.6274
   3   1.0000      -5.939697      -161.6274
   4   1.0000      -5.936468      -161.5395
   5   1.0000      -0.628832       -17.1114
   6   1.0000      -0.259158        -7.0520
   7   0.0000      -0.173676        -4.7260
   8   0.0000      -0.173675        -4.7260
   9   0.0000       0.299267         8.1435
  10   0.0000       0.307730         8.3738
  11   0.0000       0.307731         8.3738
  12   0.0000       0.339995         9.2517
  13   0.0000       0.380369        10.3504
  14   0.0000       0.380369        10.3504
  15   0.0000       0.382356        10.4044
  16   0.0000       0.392246        10.6736
  17   0.0000       0.392246        10.6736
  18   0.0000       1.523269        41.4502
  19   0.0000       1.523269        41.4502
  20   0.0000       1.525790        41.5189
  21   0.0000       1.527707        41.5710
  22   0.0000       1.527707        41.5710
  23   0.0000       1.664220        45.2857
  24   0.0000       1.664226        45.2859
  25   0.0000       1.665275        45.3144
  26   0.0000       1.666020        45.3347
  27   0.0000       1.666020        45.3347
  28   0.0000       1.672043        45.4986
  29   0.0000       1.672043        45.4986
  30   0.0000       1.914861        52.1060
  31   0.0000       1.917275        52.1717
  32   0.0000       1.917275        52.1717
  33   0.0000       3.273141        89.0667

                    ********************************
                    * MULLIKEN POPULATION ANALYSIS *
                    ********************************

--------------------------------------------
MULLIKEN ATOMIC CHARGES AND SPIN POPULATIONS
--------------------------------------------
   0 S :    0.000000    2.000000
Sum of atomic charges         :    0.0000000
Sum of atomic spin populations:    2.0000000

-----------------------------------------------------
MULLIKEN REDUCED ORBITAL CHARGES AND SPIN POPULATIONS
-----------------------------------------------------
CHARGE
  0 S s       :     5.998495  s :     5.998495
      pz      :     2.999825  p :     9.999349
      px      :     3.001875
      py      :     3.997649
      dz2     :     0.000376  d :     0.001505
      dxz     :     0.000000
      dyz     :     0.000000
      dx2y2   :     0.001120
      dxy     :     0.000009
      f0      :     0.000068  f :     0.000651
      f+1     :     0.000012
      f-1     :     0.000107
      f+2     :     0.000113
      f-2     :     0.000001
      f+3     :     0.000171
      f-3     :     0.000178

SPIN
  0 S s       :    -0.000940  s :    -0.000940
      pz      :     0.999810  p :     1.999354
      px      :     0.997759
      py      :     0.001785
      dz2     :     0.000235  d :     0.000940
      dxz     :     0.000000
      dyz     :     0.000000
      dx2y2   :     0.000699
      dxy     :     0.000006
      f0      :     0.000068  f :     0.000646
      f+1     :     0.000012
      f-1     :     0.000105
      f+2     :     0.000113
      f-2     :     0.000001
      f+3     :     0.000171
      f-3     :     0.000175


                     *******************************
                     * LOEWDIN POPULATION ANALYSIS *
                     *******************************

-------------------------------------------
LOEWDIN ATOMIC CHARGES AND SPIN POPULATIONS
-------------------------------------------
   0 S :    0.000000    2.000000

----------------------------------------------------
LOEWDIN REDUCED ORBITAL CHARGES AND SPIN POPULATIONS
----------------------------------------------------
CHARGE
  0 S s       :     5.998495  s :     5.998495
      pz      :     2.999825  p :     9.999349
      px      :     3.001875
      py      :     3.997649
      dz2     :     0.000376  d :     0.001505
      dxz     :     0.000000
      dyz     :     0.000000
      dx2y2   :     0.001120
      dxy     :     0.000009
      f0      :     0.000068  f :     0.000651
      f+1     :     0.000012
      f-1     :     0.000107
      f+2     :     0.000113
      f-2     :     0.000001
      f+3     :     0.000171
      f-3     :     0.000178

SPIN
  0 S s       :    -0.000940  s :    -0.000940
      pz      :     0.999810  p :     1.999354
      px      :     0.997759
      py      :     0.001785
      dz2     :     0.000235  d :     0.000940
      dxz     :     0.000000
      dyz     :     0.000000
      dx2y2   :     0.000699
      dxy     :     0.000006
      f0      :     0.000068  f :     0.000646
      f+1     :     0.000012
      f-1     :     0.000105
      f+2     :     0.000113
      f-2     :     0.000001
      f+3     :     0.000171
      f-3     :     0.000175


                      *****************************
                      * MAYER POPULATION ANALYSIS *
                      *****************************

  NA   - Mulliken gross atomic population
  ZA   - Total nuclear charge
  QA   - Mulliken gross atomic charge
  VA   - Mayer's total valence
  BVA  - Mayer's bonded valence
  FA   - Mayer's free valence

  ATOM       NA         ZA         QA         VA         BVA        FA
  0 S     16.0000    16.0000     0.0000     2.0074     0.0000     2.0074

  Mayer bond orders larger than 0.100000


-------
TIMINGS
-------

Total SCF time: 0 days 0 hours 0 min 0 sec

Total time                  ....       0.643 sec
Sum of individual times     ....       0.547 sec  ( 85.1%)

Fock matrix formation       ....       0.434 sec  ( 67.4%)
  Split-RI-J                ....       0.087 sec  ( 20.2% of F)
  Chain of spheres X        ....       0.296 sec  ( 68.2% of F)
  XC integration            ....       0.040 sec  (  9.3% of F)
    Basis function eval.    ....       0.008 sec  ( 20.2% of XC)
    Density eval.           ....       0.009 sec  ( 21.9% of XC)
    XC-Functional eval.     ....       0.005 sec  ( 12.9% of XC)
    XC-Potential eval.      ....       0.008 sec  ( 19.4% of XC)
Diagonalization             ....       0.013 sec  (  2.0%)
Density matrix formation    ....       0.001 sec  (  0.1%)
Population analysis         ....       0.002 sec  (  0.2%)
Initial guess               ....       0.004 sec  (  0.6%)
Orbital Transformation      ....       0.000 sec  (  0.0%)
Orbital Orthonormalization  ....       0.000 sec  (  0.0%)
DIIS solution               ....       0.015 sec  (  2.3%)
Grid generation             ....       0.080 sec  ( 12.4%)

Maximum memory used throughout the entire SCF-calculation: 58.9 MB

-------------------------   --------------------
FINAL SINGLE POINT ENERGY      -398.077775682438
-------------------------   --------------------


                            ***************************************
                            *     ORCA property calculations      *
                            ***************************************

                                    ---------------------
                                    Active property flags
                                    ---------------------
   (+) Dipole Moment
   (+) Quadrupole Moment
   (+) Polarizability


------------------------------------------------------------------------------
                       ORCA ELECTRIC PROPERTIES CALCULATION
------------------------------------------------------------------------------

Dipole Moment Calculation                       ... on
Quadrupole Moment Calculation                   ... on
Polarizability Calculation                      ... Analytic (CP-SCF)
GBWName                                         ... orca.gbw
Electron density                                ... orca.scfp
The origin for moment calculation is the CENTER OF MASS  = (51.791724,  2.405621 52.640213)

-------------
DIPOLE MOMENT
-------------
                                X             Y             Z
Electronic contribution:     -0.00000      -0.00000      -0.00000
Nuclear contribution   :      0.00000       0.00000       0.00000
                        -----------------------------------------
Total Dipole Moment    :     -0.00000      -0.00000      -0.00000
                        -----------------------------------------
Magnitude (a.u.)       :      0.00000
Magnitude (Debye)      :      0.00000



--------------------
Rotational spectrum
--------------------

Rotational constants in cm-1:     0.000000     0.000000     0.000000
Rotational constants in MHz :     0.000000     0.000000     0.000000

 Dipole components along the rotational axes:
x,y,z [a.u.] :    -0.000000    -0.000000    -0.000000
x,y,z [Debye]:    -0.000000    -0.000000    -0.000000


Transforming and storing MO dipole integrals   ... done

------------------------
QUADRUPOLE MOMENT (A.U.)
------------------------

                XX           YY           ZZ           XY           XZ           YZ
  NUC         0.00000      0.00000      0.00000      0.00000      0.00000      0.00000
  EL         -8.97135    -11.02210     -8.96713     -0.09332     -0.00026     -0.00573
  TOT        -8.97135    -11.02210     -8.96713     -0.09332     -0.00026     -0.00573 (a.u.)
            -12.06677    -14.82510    -12.06109     -0.12552     -0.00035     -0.00770 (Buckingham)

diagonalized tensor:
  -11.02636     -8.96711     -8.96711   (a.u.)
  -14.83082    -12.06107    -12.06107   (Buckingham)
   -5.53950      2.76975      2.76975   (traceless form in Buckingham)

   -0.04536      0.39507      0.91753
   -0.99897     -0.01538     -0.04277
   -0.00278     -0.91852      0.39536

Isotropic quadrupole :  -9.65353


                ... starting polarizability calculation

The origin for moment calculation is the CENTER OF MASS  = (51.791724,  2.405621 52.640213)
Opening the Dipole integral file               ... (orca.dmo.tmp) done
Reading Dipole-MO integrals                    ... done
Solving CP-SCF equations                       ...

           ************************************************************
           *        Program running with 8 parallel MPI-processes     *
           *              working on a common directory               *
           ************************************************************

------------------------------------------------------------------------------
                           ORCA CP-SCF CALCULATION
------------------------------------------------------------------------------

Input orbitals are from        ... orca.gbw
Input Perturbation             ... orca.cpv.tmp
Wavefunction output            ... orca.cpu.tmp
Perturbation mode              ... Real perturbation (singlet)
Solver                         ... POPLE
Max. number of iterations      ... 64
Convergence tolerance          ... 1.000e-04
Integral handling              ... Direct
DFT GridXC                     ... 1
COSX GridX                     ... 1
COSX IntAccX                   ... 3.067
COSX Algorithm                 ... Auto
Number of perturbations        ... 3
Number of operators            ... 2
Orbital ranges used for CP-SCF:
 Operator 0:  Orbitals   0...  8  to   9... 33
 Operator 1:  Orbitals   0...  6  to   7... 33
Variables per perturbation     ... 414
DFT calculation                         ... on
XC functional terms                     ... on
Exchange functional (SCF)               ... B88
Exchange functional (CP-SCF)            ... B88
   X-Alpha parameter    XAlpha (SCF)    ...  0.666667
   X-Alpha parameter    XAlpha (CP-SCF) ...  0.666667
   Becke's b parameter  XBeta (SCF)     ...  0.004200
   Becke's b parameter  XBeta (CP-SCF)  ...  0.004200
Correlation functional (SCF)            ... LYP
Correlation functional (CP-SCF)         ... LYP
 LDA part of GGA corr.  LDAOpt (SCF)    ... VWN-5
 LDA part of GGA corr.  LDAOpt (CP-SCF) ... VWN-5
Hybrid DFT                              ... on
   Exchange mixing (SCF)                ...  0.200
   Exchange mixing (CP-SCF)             ...  0.200
   GGA exch. scaling(SCF)               ...  0.720
   GGA exch. scaling (CP-SCF)           ...  0.720
   GGA corr. scaling (SCF)              ...  0.810
   GGA corr. scaling (CP-SCF)           ...  0.810

CP-SCF GRID
-----------

General Integration Accuracy     IntAcc      ... 3.467
Radial Grid Type                 RadialGrid  ... OptM3 with GC (2021)
Angular Grid (max. ang.)         AngularGrid ... 1 (Lebedev-50)
Angular grid pruning method      GridPruning ... 4 (adaptive)
Weight generation scheme         WeightScheme... Becke
Basis function cutoff            BFCut       ... 1.0000e-11
Integration weight cutoff        WCut        ... 1.0000e-14
Angular grids for H and He will be reduced by one unit
Partially contracted basis set               ... off
Rotationally invariant grid construction     ... off

Total number of grid points                  ...     1082
Total number of batches                      ...       17
Average number of points per batch           ...       63
Average number of grid points per atom       ...     1082

CP-SCF GRIDX
------------

General Integration Accuracy     IntAcc      ... 3.067
Radial Grid Type                 RadialGrid  ... OptM3 with GC (2021)
Angular Grid (max. ang.)         AngularGrid ... 1 (Lebedev-50)
Angular grid pruning method      GridPruning ... 4 (adaptive)
Weight generation scheme         WeightScheme... Becke
Basis function cutoff            BFCut       ... 1.0000e-11
Integration weight cutoff        WCut        ... 1.0000e-14
Angular grids for H and He will be reduced by one unit
Partially contracted basis set               ... on
Rotationally invariant grid construction     ... off

Total number of grid points                  ...      530
Total number of batches                      ...        9
Average number of points per batch           ...       58
Average number of grid points per atom       ...      530

Recalculating density on grid  ... done
Calculating the xc-kernel      ... done
Memory available               ... 1020.6 MB
Memory needed per perturbation ...   0.2 MB
Perturbations treated per batch... 3
Number of batches              ... 1
     CP-SCF ITERATION   0:   2.8248e+00 (   0.1 sec   0/  3 done)
     CP-SCF ITERATION   1:   7.0478e-02 (   0.1 sec   0/  3 done)
     CP-SCF ITERATION   2:   1.8018e-02 (   0.1 sec   0/  3 done)
     CP-SCF ITERATION   3:   5.8759e-03 (   0.1 sec   0/  3 done)
     CP-SCF ITERATION   4:   4.0994e-04 (   0.1 sec   0/  3 done)
     CP-SCF ITERATION   5:   2.6547e-05 (   0.1 sec   3/  3 done)
                    *** THE CP-SCF HAS CONVERGED ***
done
Reading CP-SCF coefficients                    ... done
Doing the polarizability tensor                ... done
Cleaning up                                    ... done

-------------------------
THE POLARIZABILITY TENSOR
-------------------------

The raw cartesian tensor (atomic units):
   12.36320      0.02690      0.00008
    0.02690     12.95772      0.00165
    0.00008      0.00165     12.36190
diagonalized tensor:
   12.36190     12.36198     12.95894

   -0.06119      0.99711      0.04512
   -0.00000     -0.04520      0.99898
    0.99813      0.06113      0.00277

Isotropic polarizability :  12.56094


Timings for individual modules:

Sum of individual times         ...        2.641 sec (=   0.044 min)
GTO integral calculation        ...        0.569 sec (=   0.009 min)  21.6 %
SCF iterations                  ...        1.038 sec (=   0.017 min)  39.3 %
Solution of CP-SCF eqns.        ...        1.033 sec (=   0.017 min)  39.1 %
                             ****ORCA TERMINATED NORMALLY****
TOTAL RUN TIME: 0 days 0 hours 0 minutes 3 seconds 91 msec
