[Molden Format]
[Title]
 Molden file created by orca_2mkl for BaseName=orca

[Atoms] AU
S    1  16         51.7917241524         2.4056213685        52.6402130762 
[GTO]
  1 0
s  13 1.0 
   374100.0000000000         0.5844191251
    56050.0000000000         1.0925375970
    12760.0000000000         1.8882460744
     3615.0000000000         3.0541532947
     1183.0000000000         4.6161738673
      428.8000000000         6.3572288857
      167.8000000000         7.4301266800
       69.4700000000         6.4201900098
       29.8400000000         2.9943994930
       12.7200000000         0.4065747605
        5.2440000000         0.0010887070
        2.2190000000         0.0021355931
        0.3490000000         0.0000974987
s  13 1.0 
   374100.0000000000        -0.1701104440
    56050.0000000000        -0.3176884996
    12760.0000000000        -0.5510798589
     3615.0000000000        -0.8935569365
     1183.0000000000        -1.3757326288
      428.8000000000        -1.9593522813
      167.8000000000        -2.5194726900
       69.4700000000        -2.6446965973
       29.8400000000        -1.8699879048
       12.7200000000         0.0414116652
        5.2440000000         1.3436104798
        2.2190000000         0.7398283949
        0.3490000000        -0.0031287217
s  13 1.0 
   374100.0000000000         0.0735668552
    56050.0000000000         0.1372853730
    12760.0000000000         0.2384482604
     3615.0000000000         0.3862332765
     1183.0000000000         0.5966173777
      428.8000000000         0.8505677156
      167.8000000000         1.1063107580
       69.4700000000         1.1790290527
       29.8400000000         0.8744613282
       12.7200000000        -0.0272187340
        5.2440000000        -0.7922164092
        2.2190000000        -0.7760986499
        0.3490000000         0.3624840981
s   1 1.0 
        0.7767000000         0.5896578317
s   1 1.0 
        0.1322000000         0.1562549138
p   7 1.0 
      574.4000000000        10.0083681887
      135.8000000000        13.1304340558
       43.1900000000        14.4020848242
       15.8700000000        11.8502636269
        6.2080000000         6.2476933447
        2.4830000000         1.6253545143
        0.3229000000        -0.0017986205
p   7 1.0 
      574.4000000000        -4.2649065184
      135.8000000000        -5.5998482197
       43.1900000000        -6.3002068274
       15.8700000000        -5.3084005917
        6.2080000000        -2.9694448650
        2.4830000000        -0.7390887814
        0.3229000000         0.3389817270
p   1 1.0 
        0.8688000000         1.1956108656
p   1 1.0 
        0.1098000000         0.0900934075
d   1 1.0 
        0.2690000000         0.2864419183
d   1 1.0 
        0.8190000000         2.0100965197
f   1 1.0 
        0.5570000000         1.5281791442

[5D]
[7F]
[9G]
[MO]
 Sym=     1a
 Ene= -8.89446505646345E+01
 Spin= Alpha
 Occup= 1.000000
  1      -1.000599944780
  2      -0.002898787273
  3      -0.002185101016
  4       0.003301862663
  5       0.000905304214
  6      -0.000000000001
  7       0.000000000003
  8      -0.000000000005
  9      -0.000000000002
 10       0.000000000005
 11      -0.000000000008
 12       0.000000000001
 13      -0.000000000003
 14       0.000000000005
 15       0.000000000001
 16      -0.000000000003
 17       0.000000000005
 18       0.000000209050
 19      -0.000000000091
 20      -0.000000002014
 21       0.000000360598
 22      -0.000000032818
 23      -0.000000356442
 24       0.000000000156
 25       0.000000003434
 26      -0.000000614843
 27       0.000000055957
 28       0.000000000000
 29       0.000000000000
 30       0.000000000000
 31      -0.000000000000
 32       0.000000000000
 33       0.000000000001
 34       0.000000000000
 Sym=     1a
 Ene= -7.99198947219475E+00
 Spin= Alpha
 Occup= 1.000000
  1      -0.004460739576
  2       0.926248394204
  3      -0.009881576640
  4       0.095655372968
  5       0.004898446652
  6      -0.000000000003
  7      -0.000000000002
  8       0.000000000004
  9      -0.000000000003
 10       0.000000000001
 11       0.000000000006
 12       0.000000000002
 13      -0.000000000000
 14      -0.000000000003
 15       0.000000000002
 16      -0.000000000000
 17      -0.000000000004
 18      -0.000178043392
 19       0.000000077890
 20       0.000001715194
 21      -0.000307115786
 22       0.000027950008
 23       0.000566500274
 24      -0.000000247822
 25      -0.000005457427
 26       0.000977184081
 27      -0.000088931571
 28      -0.000000000000
 29       0.000000000000
 30       0.000000000001
 31      -0.000000000001
 32       0.000000000000
 33      -0.000000000000
 34       0.000000000001
 Sym=     1a
 Ene= -5.96141569287754E+00
 Spin= Alpha
 Occup= 1.000000
  1       0.000000000005
  2       0.000000000026
  3       0.000000000028
  4      -0.000000000020
  5      -0.000000000015
  6      -0.961719786125
  7       0.043916830769
  8      -0.087869235500
  9       0.000029378083
 10      -0.000001341490
 11       0.000002684187
 12      -0.068614303180
 13       0.003133264452
 14      -0.006269067620
 15      -0.001229764081
 16       0.000056157024
 17      -0.000112359582
 18      -0.000000000001
 19       0.000000000008
 20      -0.000000000007
 21       0.000000000000
 22      -0.000000000009
 23       0.000000000001
 24      -0.000000000004
 25       0.000000000004
 26      -0.000000000000
 27       0.000000000005
 28      -0.000020752288
 29      -0.000092715289
 30       0.000004469951
 31      -0.000026533101
 32       0.000004055790
 33       0.000356173263
 34      -0.000048882312
 Sym=     1a
 Ene= -5.96141569261279E+00
 Spin= Alpha
 Occup= 1.000000
  1      -0.000000000003
  2      -0.000000000016
  3      -0.000000000016
  4       0.000000000012
  5       0.000000000006
  6      -0.087900693412
  7       0.001308812915
  8       0.962718231159
  9       0.000002685142
 10      -0.000000039971
 11      -0.000029408653
 12      -0.006271311990
 13       0.000093377794
 14       0.068685537710
 15      -0.000112399804
 16       0.000001673592
 17       0.001231040845
 18      -0.000000000001
 19      -0.000000000006
 20       0.000000000006
 21       0.000000000001
 22       0.000000000005
 23       0.000000000001
 24       0.000000000003
 25      -0.000000000003
 26      -0.000000000000
 27      -0.000000000003
 28       0.000227367479
 29      -0.000008592329
 30      -0.000002455213
 31       0.000292339962
 32      -0.000026455471
 33       0.000032645610
 34      -0.000003461781
 Sym=     1a
 Ene= -5.94285738402804E+00
 Spin= Alpha
 Occup= 1.000000
  1       0.000000000010
  2       0.000000000053
  3       0.000000000059
  4      -0.000000000043
  5      -0.000000000031
  6      -0.043890698061
  7      -0.966536550204
  8      -0.002693422862
  9      -0.000010710011
 10      -0.000235851204
 11      -0.000000657245
 12      -0.003062538098
 13      -0.067441503851
 14      -0.000187937542
 15      -0.000051861347
 16      -0.001142061269
 17      -0.000003182550
 18       0.000000000001
 19      -0.000000000006
 20       0.000000000008
 21       0.000000000002
 22       0.000000000008
 23      -0.000000000001
 24       0.000000000003
 25      -0.000000000004
 26      -0.000000000001
 27      -0.000000000004
 28      -0.000001900266
 29      -0.000012641387
 30      -0.000278382167
 31      -0.000002443147
 32       0.000000222345
 33       0.000048827111
 34       0.000356442601
 Sym=     1a
 Ene= -7.22219167726270E-01
 Spin= Alpha
 Occup= 1.000000
  1      -0.000004363100
  2      -0.006500248902
  3       0.655594928826
  4       0.097419744658
  5       0.364619374107
  6      -0.000000000013
  7      -0.000000000007
  8       0.000000000007
  9      -0.000000000019
 10      -0.000000000016
 11       0.000000000005
 12       0.000000000017
 13       0.000000000009
 14      -0.000000000006
 15       0.000000000010
 16       0.000000000012
 17       0.000000000001
 18       0.010204154587
 19      -0.000004463874
 20      -0.000098302617
 21       0.017601646004
 22      -0.001601892119
 23       0.009349003961
 24      -0.000004089784
 25      -0.000090064286
 26       0.016126555192
 27      -0.001467642472
 28       0.000000000000
 29       0.000000000000
 30      -0.000000000000
 31       0.000000000000
 32       0.000000000000
 33       0.000000000000
 34      -0.000000000000
 Sym=     1a
 Ene= -3.31667503119215E-01
 Spin= Alpha
 Occup= 1.000000
  1       0.000000000002
  2       0.000000000015
  3       0.000000000014
  4      -0.000000000011
  5      -0.000000000009
  6      -0.013083332652
  7       0.000607390754
  8      -0.004763522413
  9       0.546686058739
 10      -0.025379778333
 11       0.199043423100
 12       0.234824325620
 13      -0.010901665715
 14       0.085497401660
 15       0.327193459361
 16      -0.015189892387
 17       0.119128163532
 18      -0.000000000001
 19       0.000000000000
 20      -0.000000000002
 21       0.000000000001
 22      -0.000000000000
 23      -0.000000000001
 24      -0.000000000000
 25      -0.000000000001
 26       0.000000000001
 27       0.000000000001
 28       0.002826911355
 29       0.003168292827
 30      -0.000179251746
 31       0.003629493663
 32      -0.000386414306
 33      -0.012174624929
 34       0.001680292634
 Sym=     1a
 Ene= -3.31667502891304E-01
 Spin= Alpha
 Occup= 1.000000
  1       0.000000000014
  2       0.000000000079
  3       0.000000000089
  4      -0.000000000052
  5      -0.000000000060
  6       0.004760291077
  7      -0.000179667641
  8      -0.013097366547
  9      -0.198908399156
 10       0.007507399247
 11       0.547272465869
 12      -0.085439403413
 13       0.003224738802
 14       0.235076211629
 15      -0.119047351277
 16       0.004493206832
 17       0.327544426531
 18       0.000000000000
 19       0.000000000001
 20      -0.000000000002
 21       0.000000000000
 22      -0.000000000001
 23      -0.000000000000
 24       0.000000000000
 25      -0.000000000004
 26       0.000000000002
 27      -0.000000000001
 28       0.007772629411
 29      -0.001157301596
 30      -0.000044716867
 31       0.009995103878
 32      -0.000889232962
 33       0.004433178049
 34      -0.000572743646
 Sym=     1a
 Ene= -2.84176386163196E-01
 Spin= Alpha
 Occup= 1.000000
  1      -0.000000000003
  2      -0.000000000023
  3      -0.000000000025
  4       0.000000000016
  5       0.000000000015
  6      -0.001089630143
  7      -0.023995281608
  8      -0.000066866875
  9       0.024855179964
 10       0.547348039833
 11       0.001525277213
 12       0.011323441720
 13       0.249359008733
 14       0.000694880780
 15       0.017595591717
 16       0.387481366233
 17       0.001079781477
 18      -0.000000000001
 19      -0.000000000002
 20      -0.000000000001
 21       0.000000000002
 22       0.000000000002
 23      -0.000000000002
 24      -0.000000000000
 25      -0.000000000005
 26       0.000000000003
 27       0.000000000000
 28       0.000070245925
 29       0.000467305319
 30       0.010290798611
 31       0.000090314191
 32      -0.000008219300
 33      -0.001804961320
 34      -0.013176415829
 Sym=     1a
 Ene= 2.70205533077889E-01
 Spin= Alpha
 Occup= 0.000000
  1      -0.000000000043
  2      -0.000000000286
  3      -0.000000000567
  4      -0.000000000055
  5       0.000000000629
  6       0.309040675205
  7      -0.014232264831
  8       0.071286398259
  9       1.086687093514
 10      -0.050045255143
 11       0.250666061747
 12       0.096602472575
 13      -0.004448838938
 14       0.022283287977
 15      -1.324375751767
 16       0.060991532880
 17      -0.305493693589
 18       0.000000000082
 19      -0.000000000266
 20       0.000000000141
 21      -0.000000000037
 22       0.000000000176
 23       0.000000000009
 24      -0.000000000051
 25       0.000000000020
 26      -0.000000000012
 27       0.000000000030
 28       0.000895674061
 29       0.001584727125
 30      -0.000083173435
 31       0.001149034383
 32      -0.000132626801
 33      -0.006088731770
 34       0.000838039684
 Sym=     1a
 Ene= 2.70205533190387E-01
 Spin= Alpha
 Occup= 0.000000
  1      -0.000000000269
  2      -0.000000001765
  3      -0.000000003094
  4       0.000000000068
  5       0.000000003176
  6       0.071252356006
  7      -0.002373483564
  8      -0.309366958633
  9       0.250546358031
 10      -0.008345937323
 11      -1.087834412330
 12       0.022272646671
 13      -0.000741923040
 14      -0.096704465314
 15      -0.305347807280
 16       0.010171423687
 17       1.325774020770
 18       0.000000000062
 19       0.000000000170
 20      -0.000000000098
 21       0.000000000031
 22      -0.000000000072
 23      -0.000000000010
 24       0.000000000031
 25      -0.000000000019
 26      -0.000000000025
 27      -0.000000000004
 28      -0.003887024336
 29       0.000367484812
 30       0.000031956233
 31      -0.004998124145
 32       0.000448405174
 33      -0.001405451535
 34       0.000175255347
 Sym=     1a
 Ene= 2.91380859041551E-01
 Spin= Alpha
 Occup= 0.000000
  1      -0.000000000105
  2      -0.000000000690
  3      -0.000000001186
  4       0.000000000044
  5       0.000000001215
  6       0.014761289311
  7       0.325065209456
  8       0.000905849348
  9       0.051854331168
 10       1.141908361629
 11       0.003182121179
 12       0.004367831228
 13       0.096186044594
 14       0.000268038641
 15      -0.061423359304
 16      -1.352632184281
 17      -0.003769339075
 18      -0.000000000071
 19       0.000000000498
 20      -0.000000000213
 21       0.000000000031
 22      -0.000000000208
 23      -0.000000000024
 24       0.000000000107
 25      -0.000000000031
 26      -0.000000000006
 27      -0.000000000029
 28       0.000036598232
 29       0.000243466315
 30       0.005361523619
 31       0.000047053801
 32      -0.000004282268
 33      -0.000940386915
 34      -0.006864935215
 Sym=     1a
 Ene= 3.04377335641465E-01
 Spin= Alpha
 Occup= 0.000000
  1      -0.000000000119
  2      -0.000000000896
  3      -0.000000002017
  4      -0.000000000493
  5       0.000000002568
  6      -0.000000000021
  7       0.000000000036
  8       0.000000000005
  9      -0.000000000100
 10       0.000000000123
 11       0.000000000016
 12      -0.000000000028
 13       0.000000000007
 14       0.000000000001
 15       0.000000000141
 16      -0.000000000139
 17      -0.000000000017
 18       0.749147969265
 19       0.000022305798
 20      -0.002411598073
 21      -0.430747368543
 22       0.039201160049
 23       0.176364208079
 24       0.000005251220
 25      -0.000567737604
 26      -0.101406426950
 27       0.009228722182
 28       0.000000000000
 29      -0.000000000000
 30      -0.000000000000
 31       0.000000000000
 32       0.000000000000
 33       0.000000000001
 34      -0.000000000001
 Sym=     1a
 Ene= 3.04377340027652E-01
 Spin= Alpha
 Occup= 0.000000
  1       0.000000000268
  2       0.000000001834
  3       0.000000003736
  4       0.000000000373
  5      -0.000000003969
  6      -0.000000000038
  7       0.000000000158
  8      -0.000000000045
  9      -0.000000000202
 10       0.000000000623
 11      -0.000000000232
 12      -0.000000000071
 13       0.000000000105
 14      -0.000000000077
 15       0.000000000291
 16      -0.000000000781
 17       0.000000000330
 18       0.000114038346
 19      -0.864154410966
 20       0.039241110405
 21       0.000152684409
 22       0.002404169976
 23       0.000026846896
 24      -0.203438988852
 25       0.009238127496
 26       0.000035944965
 27       0.000565988892
 28      -0.000000000001
 29      -0.000000000001
 30       0.000000000003
 31      -0.000000000001
 32       0.000000000000
 33       0.000000000001
 34      -0.000000000004
 Sym=     1a
 Ene= 3.08814438252376E-01
 Spin= Alpha
 Occup= 0.000000
  1      -0.140497947363
  2      -0.944248974626
  3      -1.796729813843
  4      -0.105127327622
  5       1.936910062127
  6      -0.000000000208
  7      -0.000000000090
  8       0.000000000496
  9      -0.000000000760
 10      -0.000000000520
 11       0.000000001694
 12      -0.000000000095
 13      -0.000000000187
 14       0.000000000112
 15       0.000000000942
 16       0.000000000724
 17      -0.000000002010
 18       0.039862483783
 19      -0.000017441014
 20      -0.000384024753
 21       0.068760736254
 22      -0.006257964561
 23      -0.005295030508
 24       0.000002315708
 25       0.000051008785
 26      -0.009133660822
 27       0.000831197642
 28       0.000000000011
 29      -0.000000000002
 30      -0.000000000011
 31       0.000000000013
 32      -0.000000000001
 33       0.000000000015
 34       0.000000000001
 Sym=     1a
 Ene= 3.35547261680812E-01
 Spin= Alpha
 Occup= 0.000000
  1      -0.000000025323
  2      -0.000000170183
  3      -0.000000326921
  4      -0.000000019250
  5       0.000000346820
  6      -0.000000000013
  7       0.000000000043
  8       0.000000000001
  9      -0.000000000139
 10       0.000000000262
 11      -0.000000000101
 12      -0.000000000085
 13       0.000000000108
 14      -0.000000000087
 15       0.000000000230
 16      -0.000000000380
 17       0.000000000192
 18       0.002006887472
 19       0.021010577306
 20       0.415689762420
 21       0.070560053679
 22       0.762531354214
 23       0.000448161872
 24       0.004691983940
 25       0.092829856317
 26       0.015757130721
 27       0.170284867834
 28      -0.000000000000
 29      -0.000000000001
 30       0.000000000001
 31      -0.000000000000
 32      -0.000000000000
 33       0.000000000001
 34      -0.000000000002
 Sym=     1a
 Ene= 3.35547261799904E-01
 Spin= Alpha
 Occup= 0.000000
  1      -0.000000012649
  2      -0.000000085030
  3      -0.000000163416
  4      -0.000000009701
  5       0.000000173425
  6      -0.000000000007
  7      -0.000000000021
  8      -0.000000000004
  9      -0.000000000001
 10      -0.000000000083
 11       0.000000000031
 12       0.000000000018
 13      -0.000000000016
 14       0.000000000037
 15      -0.000000000015
 16       0.000000000099
 17      -0.000000000071
 18      -0.003692367078
 19      -0.033580951106
 20      -0.765043445543
 21       0.035600486997
 22       0.414699958779
 23      -0.000824565446
 24      -0.007499141274
 25      -0.170845855505
 26       0.007950129160
 27       0.092608818331
 28       0.000000000000
 29      -0.000000000000
 30      -0.000000000000
 31      -0.000000000001
 32      -0.000000000000
 33      -0.000000000000
 34       0.000000000001
 Sym=     1a
 Ene= 3.47469847736750E-01
 Spin= Alpha
 Occup= 0.000000
  1       0.012693672523
  2       0.082001304938
  3       0.119453711135
  4      -0.008917262416
  5      -0.155876747109
  6       0.000000000012
  7      -0.000000000003
  8      -0.000000000024
  9       0.000000000051
 10       0.000000000024
 11      -0.000000000076
 12       0.000000000011
 13       0.000000000027
 14       0.000000000001
 15      -0.000000000067
 16      -0.000000000050
 17       0.000000000083
 18       0.435097794220
 19      -0.000190340737
 20      -0.004191554801
 21       0.750521481208
 22      -0.068303589191
 23       0.096094689143
 24      -0.000042038230
 25      -0.000925737130
 26       0.165758432466
 27      -0.015085374282
 28      -0.000000000001
 29      -0.000000000000
 30       0.000000000001
 31      -0.000000000001
 32       0.000000000000
 33      -0.000000000001
 34       0.000000000000
 Sym=     1a
 Ene= 1.45347045825048E+00
 Spin= Alpha
 Occup= 0.000000
  1      -0.000000000031
  2      -0.000000000179
  3      -0.000000000233
  4       0.000000000100
  5       0.000000000151
  6       0.000000000137
  7      -0.000000000141
  8       0.000000000157
  9       0.000000000185
 10      -0.000000000189
 11       0.000000000212
 12      -0.000000000180
 13       0.000000000187
 14      -0.000000000207
 15      -0.000000000062
 16       0.000000000061
 17      -0.000000000070
 18       0.000252140597
 19      -0.895987652086
 20       0.040686145139
 21       0.000081317963
 22       0.002499736899
 23      -0.000345593695
 24       1.228075435176
 25      -0.055766011863
 26      -0.000111457567
 27      -0.003426236460
 28      -0.000000000001
 29       0.000000000009
 30       0.000000000001
 31       0.000000000003
 32       0.000000000005
 33      -0.000000000004
 34       0.000000000011
 Sym=     1a
 Ene= 1.45347046233164E+00
 Spin= Alpha
 Occup= 0.000000
  1       0.000000000257
  2       0.000000001395
  3       0.000000001068
  4      -0.000000001408
  5      -0.000000000236
  6       0.000000000066
  7       0.000000000025
  8       0.000000000007
  9       0.000000000087
 10       0.000000000032
 11       0.000000000010
 12      -0.000000000087
 13      -0.000000000031
 14      -0.000000000007
 15      -0.000000000027
 16      -0.000000000014
 17      -0.000000000006
 18       0.776744651896
 19       0.000177584875
 20      -0.002507447468
 21      -0.446615034804
 22       0.040644754309
 23      -1.064636349806
 24      -0.000243404723
 25       0.003436804898
 26       0.612147890572
 27      -0.055709280544
 28       0.000000000004
 29      -0.000000000003
 30       0.000000000014
 31      -0.000000000015
 32      -0.000000000006
 33       0.000000000002
 34      -0.000000000004
 Sym=     1a
 Ene= 1.48490635608959E+00
 Spin= Alpha
 Occup= 0.000000
  1      -0.000000000710
  2      -0.000000004144
  3      -0.000000006729
  4       0.000000002623
  5       0.000000001045
  6      -0.000000000170
  7       0.000000000229
  8      -0.000000000205
  9      -0.000000000231
 10       0.000000000306
 11      -0.000000000276
 12       0.000000000223
 13      -0.000000000303
 14       0.000000000268
 15       0.000000000079
 16      -0.000000000099
 17       0.000000000095
 18      -0.001057434568
 19      -0.012348422739
 20      -0.218963555243
 21      -0.078836304868
 22      -0.859519656547
 23       0.001461446823
 24       0.017066317968
 25       0.302621792542
 26       0.108956871197
 27       1.187911745774
 28       0.000000000007
 29      -0.000000000013
 30      -0.000000000008
 31      -0.000000000004
 32      -0.000000000007
 33       0.000000000007
 34      -0.000000000026
 Sym=     1a
 Ene= 1.48490635631933E+00
 Spin= Alpha
 Occup= 0.000000
  1      -0.000000000187
  2      -0.000000001066
  3      -0.000000001504
  4       0.000000000808
  5       0.000000000154
  6       0.000000000116
  7      -0.000000000062
  8       0.000000000163
  9       0.000000000155
 10      -0.000000000084
 11       0.000000000221
 12      -0.000000000152
 13       0.000000000086
 14      -0.000000000210
 15      -0.000000000052
 16       0.000000000020
 17      -0.000000000081
 18       0.004161702176
 19       0.038544102965
 20       0.862256478832
 21      -0.017483144245
 22      -0.218616055874
 23      -0.005751740461
 24      -0.053270440081
 25      -1.191694211313
 26       0.024162835746
 27       0.302141525928
 28       0.000000000014
 29      -0.000000000006
 30       0.000000000023
 31      -0.000000000035
 32      -0.000000000004
 33      -0.000000000000
 34       0.000000000008
 Sym=     1a
 Ene= 1.49622271742497E+00
 Spin= Alpha
 Occup= 0.000000
  1      -0.005125147277
  2      -0.032447983598
  3      -0.053625496633
  4       0.008500483957
  5       0.039275224857
  6       0.000000000017
  7       0.000000000053
  8       0.000000000014
  9       0.000000000022
 10       0.000000000071
 11       0.000000000021
 12      -0.000000000023
 13      -0.000000000068
 14      -0.000000000017
 15      -0.000000000006
 16      -0.000000000026
 17      -0.000000000011
 18      -0.444028075846
 19       0.000194247072
 20       0.004277587972
 21      -0.765925762850
 22       0.069705509065
 23       0.615483903991
 24      -0.000269253110
 25      -0.005929324419
 26       1.061678313646
 27      -0.096621408258
 28      -0.000000000002
 29       0.000000000002
 30       0.000000000002
 31      -0.000000000006
 32      -0.000000000001
 33       0.000000000005
 34       0.000000000004
 Sym=     1a
 Ene= 1.57520222309304E+00
 Spin= Alpha
 Occup= 0.000000
  1       0.000000000001
  2       0.000000000004
  3       0.000000000004
  4      -0.000000000002
  5      -0.000000000003
  6       0.000000060285
  7       0.000000007436
  8       0.000000993852
  9       0.000000057496
 10       0.000000006173
 11       0.000000948954
 12      -0.000000089386
 13      -0.000000011569
 14      -0.000001472957
 15      -0.000000023883
 16      -0.000000002630
 17      -0.000000394130
 18      -0.000000000009
 19      -0.000000000004
 20      -0.000000000026
 21       0.000000000008
 22       0.000000000013
 23       0.000000000013
 24       0.000000000005
 25       0.000000000037
 26      -0.000000000011
 27      -0.000000000019
 28       0.789116346984
 29      -0.058941056206
 30      -0.000016636190
 31      -0.608681455766
 32       0.055611943379
 33      -0.015347302628
 34      -0.000001319366
 Sym=     1a
 Ene= 1.57520224864827E+00
 Spin= Alpha
 Occup= 0.000000
  1      -0.000000000004
  2      -0.000000000025
  3      -0.000000000020
  4       0.000000000024
  5       0.000000000005
  6      -0.000000995581
  7      -0.000000060804
  8       0.000000061337
  9      -0.000000950207
 10      -0.000000050530
 11       0.000000058622
 12       0.000001475741
 13       0.000000094565
 14      -0.000000090873
 15       0.000000394692
 16       0.000000021513
 17      -0.000000024345
 18       0.000000000002
 19       0.000000000007
 20       0.000000000002
 21       0.000000000001
 22      -0.000000000008
 23      -0.000000000003
 24      -0.000000000009
 25      -0.000000000003
 26      -0.000000000001
 27       0.000000000012
 28       0.048076461183
 29       0.965436376056
 30      -0.044000862638
 31      -0.037393135437
 32      -0.000013955659
 33       0.247248045876
 34      -0.033990274956
 Sym=     1a
 Ene= 1.60361387904478E+00
 Spin= Alpha
 Occup= 0.000000
  1       0.000000000004
  2       0.000000000024
  3       0.000000000021
  4      -0.000000000022
  5      -0.000000000009
  6      -0.000000040293
  7      -0.000000001946
  8      -0.000000665935
  9      -0.000000040515
 10      -0.000000001530
 11      -0.000000672115
 12       0.000000058556
 13       0.000000003080
 14       0.000000966256
 15       0.000000016576
 16       0.000000000650
 17       0.000000275064
 18       0.000000000005
 19       0.000000000005
 20       0.000000000004
 21      -0.000000000005
 22      -0.000000000008
 23      -0.000000000007
 24      -0.000000000007
 25      -0.000000000006
 26       0.000000000007
 27       0.000000000011
 28      -0.000018983034
 29       0.004392687810
 30      -0.000300032981
 31       0.090622689690
 32       0.995869730537
 33      -0.003387215294
 34       0.000385486232
 Sym=     1a
 Ene= 1.60361833967635E+00
 Spin= Alpha
 Occup= 0.000000
  1       0.000000000019
  2       0.000000000101
  3       0.000000000085
  4      -0.000000000098
  5      -0.000000000025
  6      -0.000000320927
  7       0.000000004756
  8       0.000000019897
  9      -0.000000315402
 10       0.000000005427
 11       0.000000019683
 12       0.000000470766
 13      -0.000000006545
 14      -0.000000029107
 15       0.000000128896
 16      -0.000000002120
 17      -0.000000008053
 18      -0.000000000005
 19       0.000000000005
 20      -0.000000000024
 21       0.000000000006
 22      -0.000000000014
 23       0.000000000007
 24      -0.000000000007
 25       0.000000000034
 26      -0.000000000008
 27       0.000000000020
 28       0.005390742580
 29       0.035853101104
 30       0.789734366641
 31       0.001398394969
 32       0.000000488930
 33       0.083116554109
 34       0.606708173759
 Sym=     1a
 Ene= 1.62092417977850E+00
 Spin= Alpha
 Occup= 0.000000
  1      -0.000000000012
  2      -0.000000000062
  3      -0.000000000051
  4       0.000000000061
  5       0.000000000014
  6       0.009820739431
  7      -0.000548123103
  8       0.036509295128
  9       0.010097639751
 10      -0.000563548031
 11       0.037538686463
 12      -0.014147917578
 13       0.000789652616
 14      -0.052595889774
 15      -0.004094278902
 16       0.000228502986
 17      -0.015220770332
 18       0.000000000004
 19       0.000000000008
 20       0.000000000009
 21      -0.000000000009
 22      -0.000000000009
 23      -0.000000000006
 24      -0.000000000010
 25      -0.000000000016
 26       0.000000000014
 27       0.000000000011
 28       0.590968117412
 29       0.064603487978
 30      -0.010334569204
 31       0.759755691891
 32      -0.070274786927
 33      -0.249057767255
 34       0.036752418876
 Sym=     1a
 Ene= 1.62092419405379E+00
 Spin= Alpha
 Occup= 0.000000
  1       0.000000000031
  2       0.000000000173
  3       0.000000000143
  4      -0.000000000165
  5      -0.000000000042
  6       0.036473041176
  7      -0.001630099693
  8      -0.009835459831
  9       0.037501415353
 10      -0.001675972144
 11      -0.010112773724
 12      -0.052543658792
 13       0.002348400814
 14       0.014169124903
 15      -0.015205657659
 16       0.000679559882
 17       0.004100415340
 18      -0.000000000001
 19       0.000000000008
 20      -0.000000000009
 21      -0.000000000003
 22      -0.000000000012
 23       0.000000000001
 24      -0.000000000010
 25       0.000000000012
 26       0.000000000003
 27       0.000000000016
 28      -0.159204486123
 29       0.241143190977
 30      -0.008970007117
 31      -0.205088132135
 32       0.014395219540
 33      -0.925910613605
 34       0.126159033663
 Sym=     1a
 Ene= 1.62703642336758E+00
 Spin= Alpha
 Occup= 0.000000
  1       0.000000000006
  2       0.000000000034
  3       0.000000000029
  4      -0.000000000031
  5      -0.000000000010
  6       0.001861063566
  7       0.040955021410
  8       0.000114205621
  9       0.001810724698
 10       0.039845512895
 11       0.000111116542
 12      -0.002742458106
 13      -0.060352233338
 14      -0.000168293082
 15      -0.000739752885